<?xml version="1.0"?>
<VTKFile type="PolyData" version="0.1" byte_order="LittleEndian">
  <PolyData>
    <Piece NumberOfLines="242" NumberOfPoints="243">
      <CellData Scalars="p">
        <DataArray type="Float32" Name="p" NumberOfComponents="1" format="ascii">
          35279.6 35293.7 35307.1 35317.5 35322.7 35323.5 35325 35325.7 35325.7 35325 35324.2 35323.5
          35322 35321.3 35319.8 35318.3 35317.5 35315.3 35313.1 35312.3 35312.3 35313.1 35316.8 35322
          35324.2 35325 35329.4 35334.6 35339.9 35349.5 35357.7 35363.7 35375.6 35389.7 35400.1 35409.8
          35423.2 35432.1 35435.1 35444.1 35457.5 35467.1 35484.2 35503.6 35514.8 35528.9 35540.8 35545.3
          35553.5 35563.9 35569.8 35572.8 35577.3 35587.7 35604.1 35620.4 35628.6 35633.1 35638.3 35647.2
          35499.1 35502.1 35505.8 35507.3 35451.5 35454.5 35432.9 35434.4 35435.9 35431.4 35432.9 35415.8
          35404.6 35383.8 35383.8 35383.8 35383.8 35325 35325.7 35326.5 35328 35333.2 35337.6 35341.3
          35347.3 35359.2 35380.8 35394.9 35406.8 35421.7 35427.7 35437.4 35447.8 35458.2 35466.4 35470.1
          35477.6 35487.2 35499.1 35510.3 35519.2 35532.6 35549 35559.4 35566.1 35572.8 35473.8 35477.6
          35482 35484.2 35464.9 35464.2 35444.8 35425.4 35427.7 35418 35418 35396.4 35342.8 35340.6
          35325 35327.2 35309.3 35305.6 35304.1 35302.6 35301.9 35301.2 35299.7 35298.9 35319.8 35324.2
          35326.5 35327.2 35329.4 35331.7 35333.2 35334.6 35335.4 35336.9 35339.1 35341.3 35344.3 35345.8
          35345.1 35347.3 35350.3 35354 35357 35358.5 35360 35360.7 35361.4 35362.9 35367.4 35372.6
          35376.3 35378.6 35381.5 35387.5 35394.9 35399.4 35403.9 35409.1 35417.3 35429.2 35443.3 35456
          35464.9 35474.6 35481.3 35400.1 35398.7 35395.7 35392.7 35383 35380.8 35381.5 35383 35383.8
          35387.5 35377.8 35377.1 35377.8 35357 35355.5 35350.3 35353.3 35358.5 35363.7 35367.4 35370.4
          35372.6 35376.3 35380.8 35383 35389.7 35395.7 35397.9 35411.3 35429.2 35441.8 35452.2 35461.2
          35465.6 35340.6 35336.9 35336.1 35337.6 35339.9 35342.1 35328 35329.4 35331.7 35333.2 35333.9
          35334.6 35334.6 35336.1 35337.6 35339.9 35325.7 35322 35315.3 35312.3 35313.1 35317.5 35324.2
          35330.9 35335.4 35330.2 35336.1 35313.1 35307.9 35311.6 35307.9 35322.7 35329.4 35333.9 35319.8
          35322.7 35326.5
        </DataArray>
        <DataArray type="Float32" Name="p soil [cm]" NumberOfComponents="1" format="ascii">
          0 0 0 0 0 0 0 0 0 0 0 0
          0 0 0 0 0 0 0 0 0 0 0 0
          0 0 0 0 0 0 0 0 0 0 0 0
          0 0 0 0 0 0 0 0 0 0 0 0
          0 0 0 0 0 0 0 0 0 0 0 0
          0 0 0 0 0 0 0 0 0 0 0 0
          0 0 0 0 0 0 0 0 0 0 0 0
          0 0 0 0 0 0 0 0 0 0 0 0
          0 0 0 0 0 0 0 0 0 0 0 0
          0 0 0 0 0 0 0 0 0 0 0 0
          0 0 0 0 0 0 0 0 0 0 0 0
          0 0 0 0 0 0 0 0 0 0 0 0
          0 0 0 0 0 0 0 0 0 0 0 0
          0 0 0 0 0 0 0 0 0 0 0 0
          0 0 0 0 0 0 0 0 0 0 0 0
          0 0 0 0 0 0 0 0 0 0 0 0
          0 0 0 0 0 0 0 0 0 0 0 0
          0 0 0 0 0 0 0 0 0 0 0 0
          0 0 0 0 0 0 0 0 0 0 0 0
          0 0 0 0 0 0 0 0 0 0 0 0
          0 0
        </DataArray>
        <DataArray type="Float32" Name="p xylem [cm]" NumberOfComponents="1" format="ascii">
          -659.667 -659.527 -659.405 -659.326 -659.295 -659.284 -659.273 -659.269 -659.273 -659.28 -659.288 -659.299
          -659.311 -659.322 -659.337 -659.349 -659.364 -659.387 -659.402 -659.405 -659.402 -659.379 -659.333 -659.295
          -659.28 -659.254 -659.204 -659.151 -659.075 -658.984 -658.912 -658.821 -658.689 -658.563 -658.461 -658.343
          -658.229 -658.169 -658.108 -657.994 -657.877 -657.74 -657.554 -657.399 -657.27 -657.137 -657.054 -656.989
          -656.894 -656.811 -656.765 -656.727 -656.651 -656.515 -656.348 -656.223 -656.158 -656.109 -656.037 -656.746
          -657.463 -657.452 -657.425 -657.702 -657.941 -658.066 -658.157 -658.154 -658.169 -658.18 -658.264 -658.37
          -658.544 -658.647 -658.677 -658.677 -658.977 -659.25 -659.265 -659.254 -659.22 -659.17 -659.129 -659.079
          -658.988 -658.818 -658.635 -658.503 -658.366 -658.26 -658.18 -658.078 -657.972 -657.877 -657.816 -657.759
          -657.672 -657.562 -657.444 -657.342 -657.228 -657.076 -656.94 -656.853 -656.784 -657.255 -657.721 -657.698
          -657.664 -657.752 -657.846 -657.956 -658.138 -658.229 -658.279 -658.309 -658.438 -658.768 -659.083 -659.197
          -659.269 -659.345 -659.44 -659.481 -659.497 -659.508 -659.516 -659.527 -659.538 -659.436 -659.33 -659.273
          -659.258 -659.242 -659.22 -659.201 -659.185 -659.174 -659.163 -659.144 -659.121 -659.094 -659.072 -659.068
          -659.06 -659.034 -659 -658.965 -658.943 -658.927 -658.916 -658.909 -658.897 -658.867 -658.818 -658.772
          -658.742 -658.715 -658.67 -658.601 -658.541 -658.495 -658.446 -658.377 -658.275 -658.142 -658.006 -657.896
          -657.801 -657.717 -658.097 -658.499 -658.541 -658.571 -658.635 -658.673 -658.704 -658.692 -658.681 -658.658
          -658.689 -658.723 -658.742 -658.844 -658.95 -658.992 -659.003 -658.962 -658.909 -658.863 -658.829 -658.802
          -658.772 -658.73 -658.696 -658.651 -658.586 -658.544 -658.465 -658.305 -658.15 -658.032 -657.934 -657.865
          -658.48 -659.132 -659.148 -659.155 -659.136 -659.113 -659.174 -659.231 -659.22 -659.201 -659.189 -659.182
          -659.178 -659.17 -659.155 -659.136 -659.197 -659.284 -659.341 -659.39 -659.402 -659.375 -659.318 -659.25
          -659.193 -659.197 -659.189 -659.28 -659.402 -659.432 -659.428 -659.375 -659.292 -659.208 -659.258 -659.322
          -659.28 -839.315
        </DataArray>
        <DataArray type="Float32" Name="radius [m]" NumberOfComponents="1" format="ascii">
          0.00114828 0.00106626 0.00106626 0.00098424 0.00098424 0.00098424 0.00098424 0.00098424 0.00106626 0.00106626 0.00114828 0.00114828
          0.0012303 0.00114828 0.00131232 0.00131232 0.00131232 0.00131232 0.0012303 0.00032808 0.00049212 0.0004101 0.0004101 0.0004101
          0.00032808 0.00049212 0.00032808 0.00024606 0.0004101 0.0004101 0.00032808 0.00032808 0.0004101 0.0004101 0.0004101 0.0004101
          0.00049212 0.00049212 0.00049212 0.00049212 0.00049212 0.00057414 0.00057414 0.00049212 0.00049212 0.00049212 0.0004101 0.0004101
          0.0004101 0.0004101 0.0004101 0.00024606 0.00032808 0.0004101 0.0004101 0.0004101 0.0004101 0.0004101 0.0004101 0.00016404
          0.00016404 0.00016404 0.00016404 0.00024606 0.00016404 0.00024606 0.00016404 0.0001367 2.734e-05 0.00016404 5.46801e-05 0.00024606
          2.734e-05 0.00016404 0.000143535 0.000102525 2.734e-05 0.00024606 0.00016404 0.00016404 0.00032808 0.00024606 0.00024606 0.0004101
          0.00024606 0.00032808 0.00032808 0.00032808 0.0004101 0.0004101 0.0004101 0.00049212 0.0004101 0.00057414 0.0004101 0.00057414
          0.0004101 0.00049212 0.0004101 0.0004101 0.00032808 0.0004101 0.00032808 0.00032808 0.00024606 0.00016404 0.00016404 0.00016404
          0.00024606 2.734e-05 0.00016404 2.734e-05 2.734e-05 0.00016404 0.00024606 0.0004101 5.46801e-05 3.64533e-05 0.00016404 2.734e-05
          0.00024606 8.202e-05 0.00073818 0.00073818 0.00057414 0.00073818 0.00065616 0.00065616 0.00049212 0.00016404 0.0004101 0.0004101
          0.00032808 0.00032808 0.00032808 0.00016404 0.0004101 0.00032808 0.00016404 0.0004101 0.00024606 0.00016404 0.00016404 0.00024606
          0.0004101 0.0004101 0.00032808 0.00024606 0.0004101 0.00049212 0.00024606 0.00032808 0.00024606 0.00032808 0.00024606 0.00024606
          0.00016404 0.00032808 0.00024606 0.00024606 0.00024606 0.00032808 0.00024606 0.00032808 0.00024606 0.00024606 0.00024606 0.00024606
          0.00024606 0.00016404 0.00016404 0.00032808 0.00016404 0.00016404 0.00024606 0.00024606 0.00016404 0.00016404 0.00016404 0.00016404
          0.00016404 0.00024606 8.202e-05 2.734e-05 0.00024606 0.00016404 0.00024606 0.00024606 0.00024606 0.00024606 0.00016404 0.00024606
          0.00024606 0.00024606 0.00024606 0.00032808 0.00024606 0.00024606 0.00024606 0.00032808 0.00024606 0.00032808 0.00032808 0.00032808
          2.734e-05 2.734e-05 0.00032808 0.00024606 0.00024606 0.00024606 2.734e-05 0.00032808 0.00032808 0.00024606 0.00016404 0.00024606
          0.00016404 0.00016404 0.00016404 0.00016404 2.734e-05 0.00016404 0.00032808 0.00024606 0.00016404 0.00016404 0.00016404 0.00024606
          0.00016404 0.00016404 0.00016404 8.202e-05 0.00024606 2.734e-05 0.00024606 0.00016404 0.00131232 0.00016404 0.00016404 0.00016404
          0.00016404 0.00016404
        </DataArray>
        <DataArray type="Float32" Name="order [1]" NumberOfComponents="1" format="ascii">
          1 1 1 1 1 1 1 1 1 1 1 1
          1 1 1 1 1 1 1 1 1 1 1 1
          1 1 1 1 1 1 1 1 1 1 1 1
          1 1 1 1 1 1 1 1 1 1 1 1
          1 1 1 1 1 1 1 1 1 1 1 1
          2 2 2 2 2 2 2 2 2 2 2 2
          2 2 2 2 2 2 2 2 2 2 2 2
          2 2 2 2 2 2 2 2 2 2 2 2
          2 2 2 2 2 2 2 2 2 2 3 3
          3 3 3 3 3 3 3 3 3 3 3 3
          2 2 2 2 2 2 2 2 2 2 2 2
          2 2 2 2 2 2 2 2 2 2 2 2
          2 2 2 2 2 2 2 2 2 2 2 2
          2 2 2 2 2 2 2 2 2 2 2 2
          2 2 2 3 3 3 3 3 3 3 3 3
          3 3 3 3 3 3 3 3 3 3 3 3
          3 3 3 3 3 3 3 3 3 3 3 3
          3 3 3 3 3 3 3 3 3 3 3 3
          3 3 3 3 3 3 3 3 3 3 3 3
          3 3 4 4 4 4 4 4 2 2 2 2
          2 2
        </DataArray>
        <DataArray type="Float32" Name="id [1]" NumberOfComponents="1" format="ascii">
          1 1 1 1 1 1 1 1 1 1 1 1
          1 1 1 1 1 1 1 1 1 1 1 1
          1 1 1 1 1 1 1 1 1 1 1 1
          1 1 1 1 1 1 1 1 1 1 1 1
          1 1 1 1 1 1 1 1 1 1 1 1
          2 2 2 2 3 3 4 4 4 5 5 6
          7 8 8 8 8 9 9 9 9 9 9 9
          9 9 9 9 9 9 9 9 9 9 9 9
          9 9 9 9 9 9 9 9 9 9 10 10
          10 10 11 11 12 13 13 14 14 15 16 16
          17 17 18 18 18 18 18 18 18 18 19 19
          19 19 19 19 19 19 19 19 19 19 19 19
          19 19 19 19 19 19 19 19 19 19 19 19
          19 19 19 19 19 19 19 19 19 19 19 19
          19 19 19 20 20 20 20 21 21 21 21 21
          21 22 22 22 23 23 24 24 24 24 24 24
          24 24 24 24 24 24 24 24 24 24 24 24
          24 25 26 26 26 26 26 27 27 27 27 27
          27 27 27 27 27 28 28 28 28 28 28 28
          28 28 29 29 30 30 31 31 32 32 32 33
          33 33
        </DataArray>
        <DataArray type="Float32" Name="axial flux [cm3/d]" NumberOfComponents="1" format="ascii">
          -0.0278537 -0.0327985 -0.0314694 -0.0381552 -0.0384047 -0.0371913 -0.0396529 -0.0432 -0.0454555 -0.0457751 -0.0511922 -0.0494594
          -0.0482334 -0.0591843 -0.0488607 -0.0671765 -0.0583002 -0.0525045 -0.0462043 -0.0432 -0.0408143 -0.0308147 -0.0372551 -0.0396045
          -0.0400517 -0.0355509 -0.0394989 -0.0295765 -0.0311605 -0.0359359 -0.0274441 -0.0224945 -0.0326074 -0.0319685 -0.0291882 -0.0267567
          -0.0361352 -0.01728 -0.018083 -0.0302691 -0.0339721 -0.00867019 -0.0343488 -0.0299418 -0.027845 -0.0339541 -0.0359549 -0.00500961
          -0.0346271 -0.0311886 -0.0369041 0.00229516 -0.0289894 -0.0257726 -0.0331532 -0.0345327 -0.0319421 -0.028547 -0.0252196 -0.202062
          -0.0469142 -0.0367757 -0.040749 -0.130425 -0.048411 -0.0823009 -0.0465908 -0.0388182 -0.0686309 -0.0421424 -0.0907027 -0.0752081
          -0.098175 -0.0600226 -0.0432 -0.0432 -0.358884 -0.0555853 -0.0412072 -0.0404618 -0.037267 -0.0382097 -0.0315981 -0.0297774
          -0.0238308 -0.0289968 -0.0367753 0.0536446 -0.0350257 -0.0329511 -0.0223381 -0.0345704 -0.0209724 -0.0360979 -0.0261934 -0.0291703
          -0.0325891 -0.0285833 -0.0325243 -0.0308741 -0.0245037 -0.0313709 -0.0344807 -0.0291259 -0.0332176 -0.256257 -0.0432005 -0.0346643
          -0.0361724 -0.163863 -0.0464114 -0.263598 -0.0656774 -0.0432 -0.0605374 -0.0637597 -0.120455 -0.185592 -0.0663757 -0.0936119
          -0.0311833 -0.0957835 -0.0506273 -0.0471064 -0.0481279 -0.0465676 -0.0479952 -0.0494593 -0.0449009 0.124632 -0.034079 -0.0335682
          -0.0371472 -0.0232504 -0.0387324 -0.0405722 -0.0409733 -0.0387477 -0.0349385 -0.0338109 -0.0375273 -0.0397183 -0.0391647 -0.0456135
          -0.0363104 -0.0353487 -0.0211997 -0.036863 -0.0280359 -0.0378307 -0.0392583 -0.0374995 -0.0372522 -0.0257245 -0.0319619 -0.0338449
          -0.0374181 -0.0323885 -0.0343734 -0.0344524 -0.038813 -0.0244216 -0.03562 -0.015668 -0.0321162 -0.0266298 -0.0340317 -0.0280831
          -0.0312105 -0.0340059 -0.263119 -0.0711718 -0.0525701 -0.0532668 -0.0713309 -0.0875334 -0.0410704 -0.0404138 -0.0390692 -0.0280682
          -0.0549875 -0.0579008 -0.0415442 -0.378866 -0.0601531 -0.0537776 -0.0341252 -0.0370685 -0.0363024 -0.0364901 -0.0376517 -0.0390799
          -0.029599 -0.037404 -0.0383915 0.00313222 -0.0371947 -0.0204554 -0.00566514 -0.0328739 -0.0319167 -0.0318857 -0.0304954 -0.036968
          -0.75525 -0.0534492 -0.0578784 -0.0280359 -0.0341921 -0.0357693 -0.0767151 -0.0432 -0.0284219 -0.0378641 -0.0402261 -0.038274
          -0.0432 -0.0378719 -0.0371947 -0.0389691 -0.0721152 -0.0671757 -0.0526424 -0.0490146 -0.0405522 -0.00992442 -0.031703 -0.0291545
          -0.0364798 -0.0698403 -0.0382997 -0.0903925 -0.0926742 -0.0383456 -0.0795164 -0.0175329 -0.0317262 -0.0322694 -0.0775169 -0.0386884
          -0.0283037 -66.504
        </DataArray>
        <DataArray type="Float32" Name="radial flux [cm3/d]" NumberOfComponents="1" format="ascii">
          -3.6463e-06 -4.48342e-06 -2.40494e-06 -1.29054e-06 -2.77079e-08 -8.84506e-08 -3.74582e-08 0 6.38167e-08 5.58961e-08 1.93955e-08 9.9059e-08
          3.29963e-08 3.8791e-08 1.25184e-07 7.38877e-09 1.05588e-07 1.71359e-07 5.52816e-08 0 -2.78461e-08 -1.11748e-07 -4.56313e-07 -1.38577e-07
          -1.40678e-08 -3.12645e-07 -5.86319e-07 -1.19465e-07 -7.77093e-07 -9.2214e-07 -1.79893e-07 -5.47571e-07 -1.88666e-06 -9.66052e-07 -6.67706e-07 -1.09079e-06
          -1.354e-06 -4.10085e-08 -3.80863e-07 -1.66451e-06 -1.21664e-06 -1.18736e-06 -5.91913e-06 -1.12736e-06 -1.5618e-06 -1.83938e-06 -2.75085e-07 -1.75397e-07
          -1.26564e-06 -2.94996e-07 -1.4072e-07 -2.62877e-08 -6.10823e-07 -1.53735e-06 -2.66671e-06 -7.72931e-07 -1.77056e-07 -1.85068e-07 -4.43287e-07 5.51991e-06
          -1.1924e-07 -8.61685e-08 -3.6139e-08 2.142e-06 -2.03966e-07 7.14425e-07 -3.2654e-08 -1.68458e-08 5.22465e-09 -6.28181e-08 8.21982e-08 1.29719e-07
          4.93414e-08 -8.42428e-08 0 0 7.29626e-08 -9.3863e-08 -1.1112e-08 -3.23488e-08 -3.6576e-07 -2.39628e-07 -7.15706e-08 -2.63954e-07
          -4.39012e-07 -2.62234e-06 -2.48848e-06 -1.17069e-07 -2.70894e-06 -3.45708e-07 -4.4845e-07 -1.5088e-06 -4.88155e-07 -1.32043e-06 -8.13821e-08 -5.5242e-07
          -8.81686e-07 -1.16348e-06 -1.16677e-06 -6.46753e-07 -7.67482e-07 -2.26509e-06 -9.95538e-07 -2.54862e-07 -2.69471e-07 1.83844e-06 -8.34728e-08 -9.33963e-08
          -4.25399e-08 2.06765e-08 -2.06871e-08 1.13199e-08 1.08365e-07 -4.03433e-08 3.23789e-07 -6.7318e-08 8.03508e-08 1.72377e-07 -2.57999e-08 3.22847e-08
          -2.21105e-08 1.21282e-07 1.20746e-07 1.02039e-07 6.29114e-08 2.95901e-08 1.84716e-08 5.66038e-08 3.90555e-08 -1.03441e-07 0 -5.17231e-08
          -7.31426e-09 -1.99804e-08 -8.92202e-08 -3.37081e-08 -9.94488e-08 -9.94743e-09 -1.07218e-08 -5.30673e-08 -5.26936e-08 -1.01754e-07 -2.19509e-08 1.37629e-08
          -7.23197e-08 -1.12821e-07 -5.03238e-08 -8.386e-08 -1.46033e-08 -4.94916e-08 -8.42702e-09 -7.76931e-09 -2.23388e-08 -9.1231e-08 -1.44823e-07 -8.87666e-08
          -3.44696e-08 -6.5544e-08 -2.40836e-07 -3.79711e-07 -2.72563e-07 -8.4901e-08 -2.14727e-07 -1.94638e-07 -7.67167e-07 -7.23637e-07 -1.047e-06 -3.16405e-07
          -4.68199e-07 -1.95084e-07 1.1963e-06 -3.32516e-08 3.78094e-08 3.51961e-08 1.99543e-07 -2.0228e-08 -1.03986e-08 -3.17918e-08 -5.36088e-09 -3.65834e-08
          3.17482e-07 -5.42288e-08 -6.68716e-09 8.62011e-09 -1.54942e-12 1.02578e-07 -5.85654e-08 -2.65437e-07 -2.35955e-07 -1.23761e-07 -6.38533e-08 -7.25502e-08
          -6.10559e-08 -2.06316e-07 -6.2171e-08 -7.74248e-08 -3.53985e-07 -1.31421e-08 -2.86715e-07 -2.4704e-06 -8.50743e-07 -7.67207e-07 -5.01979e-07 -2.55824e-07
          1.46287e-07 8.64262e-09 -2.41384e-08 -8.762e-09 -3.31876e-08 -4.02266e-08 3.97533e-08 -4.09331e-08 -2.69725e-08 -2.49004e-08 -7.44627e-09 -6.74312e-09
          0 -1.66247e-08 -1.47501e-08 -4.71003e-08 4.60755e-08 2.21674e-08 3.79926e-07 9.14022e-08 -8.36352e-09 -2.39576e-08 -1.56009e-07 -1.91552e-07
          -1.18629e-07 4.07309e-08 -2.84697e-07 2.25464e-07 8.72631e-09 -1.90058e-08 2.19498e-08 -3.4509e-07 -4.94071e-07 -7.29333e-08 2.32942e-07 -5.89009e-08
          -3.71617e-08 0.000750627
        </DataArray>
        <DataArray type="Float32" Name="age [d]" NumberOfComponents="1" format="ascii">
          19 19 19 19 19 19 19 19 19 19 19 19
          19 19 19 19 19 19 19 19 19 19 19 19
          19 19 19 19 19 19 19 19 19 19 19 19
          19 19 19 19 19 19 19 19 19 19 19 19
          19 19 19 19 19 19 19 19 19 19 19 18
          19 19 19 18 19 18 19 19 18 19 18 18
          18 19 19 19 18 19 19 19 19 19 19 19
          19 19 19 19 19 19 19 19 19 19 19 19
          19 19 19 19 19 19 19 19 19 18 19 19
          19 18 19 18 18 19 18 19 18 18 19 18
          19 18 19 19 19 19 19 19 19 18 19 19
          19 19 19 19 19 19 19 19 19 19 19 19
          19 19 19 19 19 19 19 19 19 19 19 19
          19 19 19 19 19 19 19 19 19 19 19 19
          19 19 18 19 19 19 18 19 19 19 19 19
          18 19 19 18 19 18 19 19 19 19 19 19
          19 19 19 19 19 19 19 19 19 19 19 19
          18 18 19 19 19 19 18 19 19 19 19 19
          19 19 19 19 18 19 19 19 19 19 19 19
          19 18 19 18 19 18 19 18 19 19 18 19
          19 18
        </DataArray>
        <DataArray type="Float32" Name="initial pressure [cm]" NumberOfComponents="1" format="ascii">
          -659.739 -659.595 -659.459 -659.352 -659.299 -659.292 -659.276 -659.269 -659.269 -659.276 -659.284 -659.292
          -659.307 -659.314 -659.33 -659.345 -659.352 -659.375 -659.398 -659.405 -659.405 -659.398 -659.36 -659.307
          -659.284 -659.276 -659.231 -659.178 -659.125 -659.026 -658.943 -658.882 -658.761 -658.616 -658.51 -658.412
          -658.275 -658.184 -658.154 -658.063 -657.926 -657.827 -657.653 -657.456 -657.342 -657.198 -657.076 -657.031
          -656.947 -656.841 -656.78 -656.75 -656.705 -656.598 -656.431 -656.265 -656.181 -656.136 -656.082 -655.991
          -657.501 -657.471 -657.433 -657.418 -657.987 -657.956 -658.176 -658.161 -658.146 -658.192 -658.176 -658.351
          -658.465 -658.677 -658.677 -658.677 -658.677 -659.276 -659.269 -659.261 -659.246 -659.193 -659.148 -659.11
          -659.049 -658.927 -658.708 -658.563 -658.442 -658.29 -658.229 -658.131 -658.025 -657.918 -657.835 -657.797
          -657.721 -657.623 -657.501 -657.387 -657.296 -657.16 -656.993 -656.887 -656.818 -656.75 -657.759 -657.721
          -657.676 -657.653 -657.85 -657.858 -658.055 -658.252 -658.229 -658.328 -658.328 -658.548 -659.094 -659.117
          -659.276 -659.254 -659.436 -659.474 -659.489 -659.504 -659.512 -659.519 -659.534 -659.542 -659.33 -659.284
          -659.261 -659.254 -659.231 -659.208 -659.193 -659.178 -659.17 -659.155 -659.132 -659.11 -659.079 -659.064
          -659.072 -659.049 -659.019 -658.981 -658.95 -658.935 -658.92 -658.912 -658.905 -658.89 -658.844 -658.791
          -658.753 -658.73 -658.7 -658.639 -658.563 -658.518 -658.472 -658.419 -658.336 -658.214 -658.07 -657.941
          -657.85 -657.752 -657.683 -658.51 -658.525 -658.556 -658.586 -658.685 -658.708 -658.7 -658.685 -658.677
          -658.639 -658.738 -658.745 -658.738 -658.95 -658.965 -659.019 -658.988 -658.935 -658.882 -658.844 -658.814
          -658.791 -658.753 -658.708 -658.685 -658.616 -658.556 -658.533 -658.396 -658.214 -658.085 -657.979 -657.888
          -657.843 -659.117 -659.155 -659.163 -659.148 -659.125 -659.102 -659.246 -659.231 -659.208 -659.193 -659.185
          -659.178 -659.178 -659.163 -659.148 -659.125 -659.269 -659.307 -659.375 -659.405 -659.398 -659.352 -659.284
          -659.216 -659.17 -659.223 -659.163 -659.398 -659.451 -659.413 -659.451 -659.299 -659.231 -659.185 -659.33
          -659.299 -659.261
        </DataArray>
        <DataArray type="Float32" Name="kr [cm/hPa/d]" NumberOfComponents="1" format="ascii">
          0.000176147 0.000176147 0.000176147 0.000176147 0.000176147 0.000176147 0.000176147 0.000176147 0.000176147 0.000176147 0.000176147 0.000176147
          0.000176147 0.000176147 0.000176147 0.000176147 0.000176147 0.000176147 0.000176147 0.000176147 0.000176147 0.000176147 0.000176147 0.000176147
          0.000176147 0.000176147 0.000176147 0.000176147 0.000176147 0.000176147 0.000176147 0.000176147 0.000176147 0.000176147 0.000176147 0.000176147
          0.000176147 0.000176147 0.000176147 0.000176147 0.000176147 0.000176147 0.000176147 0.000176147 0.000176147 0.000176147 0.000176147 0.000176147
          0.000176147 0.000176147 0.000176147 0.000176147 0.000176147 0.000176147 0.000176147 0.000176147 0.000176147 0.000176147 0.000176147 0.000176147
          0.000176147 0.000176147 0.000176147 0.000176147 0.000176147 0.000176147 0.000176147 0.000176147 0.000176147 0.000176147 0.000176147 0.000176147
          0.000176147 0.000176147 0.000176147 0.000176147 0.000176147 0.000176147 0.000176147 0.000176147 0.000176147 0.000176147 0.000176147 0.000176147
          0.000176147 0.000176147 0.000176147 0.000176147 0.000176147 0.000176147 0.000176147 0.000176147 0.000176147 0.000176147 0.000176147 0.000176147
          0.000176147 0.000176147 0.000176147 0.000176147 0.000176147 0.000176147 0.000176147 0.000176147 0.000176147 0.000176147 0.000176147 0.000176147
          0.000176147 0.000176147 0.000176147 0.000176147 0.000176147 0.000176147 0.000176147 0.000176147 0.000176147 0.000176147 0.000176147 0.000176147
          0.000176147 0.000176147 0.000176147 0.000176147 0.000176147 0.000176147 0.000176147 0.000176147 0.000176147 0.000176147 0.000176147 0.000176147
          0.000176147 0.000176147 0.000176147 0.000176147 0.000176147 0.000176147 0.000176147 0.000176147 0.000176147 0.000176147 0.000176147 0.000176147
          0.000176147 0.000176147 0.000176147 0.000176147 0.000176147 0.000176147 0.000176147 0.000176147 0.000176147 0.000176147 0.000176147 0.000176147
          0.000176147 0.000176147 0.000176147 0.000176147 0.000176147 0.000176147 0.000176147 0.000176147 0.000176147 0.000176147 0.000176147 0.000176147
          0.000176147 0.000176147 0.000176147 0.000176147 0.000176147 0.000176147 0.000176147 0.000176147 0.000176147 0.000176147 0.000176147 0.000176147
          0.000176147 0.000176147 0.000176147 0.000176147 0.000176147 0.000176147 0.000176147 0.000176147 0.000176147 0.000176147 0.000176147 0.000176147
          0.000176147 0.000176147 0.000176147 0.000176147 0.000176147 0.000176147 0.000176147 0.000176147 0.000176147 0.000176147 0.000176147 0.000176147
          0.000176147 0.000176147 0.000176147 0.000176147 0.000176147 0.000176147 0.000176147 0.000176147 0.000176147 0.000176147 0.000176147 0.000176147
          0.000176147 0.000176147 0.000176147 0.000176147 0.000176147 0.000176147 0.000176147 0.000176147 0.000176147 0.000176147 0.000176147 0.000176147
          0.000176147 0.000176147 0.000176147 0.000176147 0.000176147 0.000176147 0.000176147 0.000176147 0.000176147 0.000176147 0.000176147 0.000176147
          0.000176147 0.000176147
        </DataArray>
        <DataArray type="Float32" Name="kx [cm4/hPa/day]" NumberOfComponents="1" format="ascii">
          0.0440367 0.0440367 0.0440367 0.0440367 0.0440367 0.0440367 0.0440367 0.0440367 0.0440367 0.0440367 0.0440367 0.0440367
          0.0440367 0.0440367 0.0440367 0.0440367 0.0440367 0.0440367 0.0440367 0.0440367 0.0440367 0.0440367 0.0440367 0.0440367
          0.0440367 0.0440367 0.0440367 0.0440367 0.0440367 0.0440367 0.0440367 0.0440367 0.0440367 0.0440367 0.0440367 0.0440367
          0.0440367 0.0440367 0.0440367 0.0440367 0.0440367 0.0440367 0.0440367 0.0440367 0.0440367 0.0440367 0.0440367 0.0440367
          0.0440367 0.0440367 0.0440367 0.0440367 0.0440367 0.0440367 0.0440367 0.0440367 0.0440367 0.0440367 0.0440367 0.0440367
          0.0440367 0.0440367 0.0440367 0.0440367 0.0440367 0.0440367 0.0440367 0.0440367 0.0440367 0.0440367 0.0440367 0.0440367
          0.0440367 0.0440367 0.0440367 0.0440367 0.0440367 0.0440367 0.0440367 0.0440367 0.0440367 0.0440367 0.0440367 0.0440367
          0.0440367 0.0440367 0.0440367 0.0440367 0.0440367 0.0440367 0.0440367 0.0440367 0.0440367 0.0440367 0.0440367 0.0440367
          0.0440367 0.0440367 0.0440367 0.0440367 0.0440367 0.0440367 0.0440367 0.0440367 0.0440367 0.0440367 0.0440367 0.0440367
          0.0440367 0.0440367 0.0440367 0.0440367 0.0440367 0.0440367 0.0440367 0.0440367 0.0440367 0.0440367 0.0440367 0.0440367
          0.0440367 0.0440367 0.0440367 0.0440367 0.0440367 0.0440367 0.0440367 0.0440367 0.0440367 0.0440367 0.0440367 0.0440367
          0.0440367 0.0440367 0.0440367 0.0440367 0.0440367 0.0440367 0.0440367 0.0440367 0.0440367 0.0440367 0.0440367 0.0440367
          0.0440367 0.0440367 0.0440367 0.0440367 0.0440367 0.0440367 0.0440367 0.0440367 0.0440367 0.0440367 0.0440367 0.0440367
          0.0440367 0.0440367 0.0440367 0.0440367 0.0440367 0.0440367 0.0440367 0.0440367 0.0440367 0.0440367 0.0440367 0.0440367
          0.0440367 0.0440367 0.0440367 0.0440367 0.0440367 0.0440367 0.0440367 0.0440367 0.0440367 0.0440367 0.0440367 0.0440367
          0.0440367 0.0440367 0.0440367 0.0440367 0.0440367 0.0440367 0.0440367 0.0440367 0.0440367 0.0440367 0.0440367 0.0440367
          0.0440367 0.0440367 0.0440367 0.0440367 0.0440367 0.0440367 0.0440367 0.0440367 0.0440367 0.0440367 0.0440367 0.0440367
          0.0440367 0.0440367 0.0440367 0.0440367 0.0440367 0.0440367 0.0440367 0.0440367 0.0440367 0.0440367 0.0440367 0.0440367
          0.0440367 0.0440367 0.0440367 0.0440367 0.0440367 0.0440367 0.0440367 0.0440367 0.0440367 0.0440367 0.0440367 0.0440367
          0.0440367 0.0440367 0.0440367 0.0440367 0.0440367 0.0440367 0.0440367 0.0440367 0.0440367 0.0440367 0.0440367 0.0440367
          0.0440367 0.0440367
        </DataArray>
      </CellData>
      <Points>
        <DataArray type="Float32" Name="Coordinates" NumberOfComponents="3" format="ascii">
          -0 0 0 -0.0001367 -0.0002734 -0.00404632 0.0009569 -0.0004101 -0.00961001 0.0025973 -0.0001367 -0.0131505
          0.0053313 0.0006835 -0.0166911 0.0058781 0.0010936 -0.0166911 0.006835 0.0012303 -0.0171969 0.0073818 0.0017771 -0.0177027
          0.0079286 0.0017771 -0.0177027 0.0090222 0.002734 -0.0177027 0.0101158 0.0031441 -0.0171969 0.0101158 0.0035542 -0.0171969
          0.010936 0.0039643 -0.0166911 0.010936 0.0043744 -0.0161853 0.0113461 0.0043744 -0.0161853 0.0114828 0.0049212 -0.0151737
          0.0114828 0.0050579 -0.0151737 0.0114828 0.005468 -0.0146679 0.0113461 0.0057414 -0.0136563 0.0103892 0.0056047 -0.0131505
          0.0094323 0.0038276 -0.0131505 0.009569 0.0024606 -0.0131505 0.0106626 0.0019138 -0.0136563 0.0129865 -0.0004101 -0.0156795
          0.0149003 -0.0016404 -0.0171969 0.0158572 -0.0020505 -0.0171969 0.017771 -0.0036909 -0.0177027 0.0222821 -0.0071084 -0.0202316
          0.0235124 -0.0076552 -0.0212432 0.025973 -0.0079286 -0.0237721 0.0285703 -0.0091589 -0.0278185 0.0292538 -0.0091589 -0.0293358
          0.0293905 -0.0091589 -0.0318648 0.0303474 -0.0075185 -0.0374285 0.0304841 -0.0069717 -0.0414748 0.0306208 -0.0071084 -0.0445095
          0.0310309 -0.0066983 -0.0480501 0.0308942 -0.006835 -0.0536137 0.0308942 -0.006835 -0.0541195 0.0311676 -0.0065616 -0.0556369
          0.031441 -0.0066983 -0.060189 0.0319878 -0.0061515 -0.0647411 0.0319878 -0.0069717 -0.0667643 0.0315777 -0.0065616 -0.0763743
          0.0310309 -0.0075185 -0.0799148 0.0307575 -0.0075185 -0.0839611 0.0302107 -0.0084754 -0.0895248 0.0296639 -0.0092956 -0.0920538
          0.0292538 -0.0099791 -0.0925596 0.0281602 -0.0113461 -0.0976175 0.02734 -0.0113461 -0.0996406 0.0270666 -0.0117562 -0.101664
          0.0266565 -0.0118929 -0.101664 0.0255629 -0.0120296 -0.104699 0.0247427 -0.0117562 -0.108745 0.0243326 -0.0128498 -0.115826
          0.0233757 -0.0129865 -0.119872 0.0225555 -0.0132599 -0.12139 0.0222821 -0.0129865 -0.122907 0.0214619 -0.0131232 -0.12493
          0.0207784 -0.0129865 -0.128976 0.0311676 -0.0049212 -0.0768801 0.0299373 -0.0032808 -0.0783974 0.0302107 -0.0008202 -0.079409
          0.0295272 0.0019138 -0.079409 0.0306208 -0.0090222 -0.0606948 0.0296639 -0.0106626 -0.0622122 0.0302107 -0.0075185 -0.0541195
          0.0291171 -0.0076552 -0.0551311 0.0285703 -0.008202 -0.0551311 0.0288437 -0.0091589 -0.0536137 0.0282969 -0.0102525 -0.0546253
          0.0322612 -0.0045111 -0.0485558 0.0295272 -0.0088855 -0.0445095 0.0313043 -0.0062882 -0.0374285 0.0313043 -0.0058781 -0.0374285
          0.0315777 -0.0058781 -0.0374285 0.0315777 -0.0050579 -0.0374285 0.0188646 -0.0031441 -0.0171969 0.0200949 -0.0035542 -0.0182084
          0.0224188 -0.0038276 -0.0177027 0.025973 -0.0036909 -0.01922 0.0292538 -0.0045111 -0.0212432 0.030074 -0.0050579 -0.0222548
          0.0313043 -0.0050579 -0.0237721 0.0319878 -0.0043744 -0.0263011 0.0330814 -0.0008202 -0.0318648 0.0336282 0.0024606 -0.040969
          0.0337649 0.0023239 -0.0414748 0.0337649 0.0049212 -0.0490616 0.0340383 0.0051946 -0.0515906 0.0340383 0.0065616 -0.053108
          0.0340383 0.008202 -0.0581658 0.0340383 0.0086121 -0.060189 0.0344484 0.0087488 -0.0652469 0.0344484 0.009569 -0.0657527
          0.0340383 0.0106626 -0.0677759 0.0336282 0.0132599 -0.0708106 0.0332181 0.01367 -0.0743511 0.0330814 0.0129865 -0.0789032
          0.0325346 0.0121663 -0.081938 0.0317144 0.0118929 -0.0849727 0.0311676 0.0117562 -0.0910422 0.030074 0.0107993 -0.0961001
          0.030074 0.0102525 -0.0981233 0.0303474 0.0087488 -0.100652 0.0304841 0.0084754 -0.102675 0.0337649 0.009569 -0.0682816
          0.0332181 0.0086121 -0.0703048 0.0333548 0.0076552 -0.0713164 0.0337649 0.0073818 -0.0718222 0.0347218 0.0057414 -0.0647411