<?xml version="1.0"?><VTKFile type="PolyData" version="0.1" byte_order="LittleEndian">
<PolyData>
<Piece NumberOfLines="74" NumberOfPoints="9516">
<PointData Scalars=" PointData">
<DataArray type="Float32" Name="time" NumberOfComponents="1" format="ascii" >
0 0.501242 1.00498 1.51125 2.02007 2.53146 3.04546 3.56208 4.08136 4.60333 5.128 5.65542 6.18561 6.71859 6.91566 7.45252 7.99225 8.53488 9.08 9.62852 10.18 10.7346 11.2922 11.8529 12.0607 12.6257 13.1939 13.7652 14.3399 14.9178 15.4991 16.0837 16.6717 17.2632 17.482 18.0782 18.678 19.2813 19.8883 20.499 21.1134 21.7315 22.35 22.9758 23.2108 23.8419 24.4771 25.1162 25.7594 26.4067 27.0582 27.714 28.374 29.0383 29.2842 29.9546 30.6295 31.3089 31.9929 32.6816 33.375 34.0732 34.7763 35.4843 35.7464 36.4612 37.1811 37.9063 38.6366 39.3723 40.1134 40.8599 41.612 42.3698 42.6504 43.416 44.1875 44.9649 45.7483 46.5378 47.3336 48.1357 48.9442 49.7593 50.0612 50.8853 51.7163 52.5541 53.3989 54.2509 55.11 55.9766 56.8507 57.7324 58.0592 58.9515 59.8518 60 12.7749 12.825 12.8753 12.9258 12.9765 13.0274 13.0786 13.1299 13.1814 13.2332 13.2852 13.3374 13.3898 13.4424 13.4953 13.5483 13.6016 13.6552 13.7089 13.7629 13.8172 13.8716 13.9263 13.9813 14.0365 14.0919 14.1476 14.2035 14.2597 14.3161 14.3728 14.4298 14.487 14.5444 14.6022 14.6602 14.7185 14.777 14.8358 14.8949 14.9543 15.014 15.0739 15.1342 15.1947 15.2555 15.3167 15.3781 15.4398 15.5018 15.5642 15.6269 15.6898 15.7531 15.8167 15.8807 15.9449 16.0095 16.0745 16.1397 16.2054 16.2713 16.3376 16.4043 16.4713 16.5387 16.6065 16.6746 16.7431 16.8119 16.8812 16.9508 17.0209 17.0913 17.1621 17.2333 17.305 17.377 17.4495 17.5224 17.5957 17.6694 17.7436 17.8182 17.8933 17.9688 18.0448 18.1213 18.1982 18.2756 18.3535 18.4319 18.5107 18.5901 18.67 18.75 18.8309 18.9123 18.9943 19.0768 19.1599 19.2435 19.3276 19.4124 19.4977 19.5836 19.6701 19.7572 19.8449 19.9333 20.0222 20.1118 20.2021 20.293 20.3846 20.4768 20.5698 20.6634 20.7577 20.8528 20.9486 21.0451 21.1424 21.2404 21.3392 21.4388 21.5392 21.6404 21.7425 21.8453 21.9491 22.0537 22.1591 22.2655 22.3728 22.481 22.5902 22.7003 22.8114 22.9235 23.0367 23.1508 23.266 23.3823 23.4997 23.6181 23.7378 23.8585 23.9805 24.1036 24.228 24.3536 24.4805 24.6087 24.7382 24.8691 25.0014 25.1351 25.2702 25.4068 25.5449 25.6846 25.8258 25.9687 26.1132 26.2594 26.4073 26.557 26.7085 26.8619 27.0172 27.1744 27.3336 27.4949 27.6583 27.8238 27.9916 28.1617 28.3341 28.5089 28.6862 28.8661 29.0485 29.2337 29.4217 29.6125 29.8063 30.0031 30.2031 30.4064 30.613 30.823 31.0367 31.2541 31.4753 31.7005 31.9299 32.1635 32.4 32.6427 32.8902 33.1426 33.4003 33.6634 33.9322 34.2069 34.4877 34.775 35.0691 35.3702 35.6788 35.9952 36.3198 36.653 36.9954 37.3474 37.7097 38.0827 38.4672 38.8639 39.2737 39.6973 40.1358 40.5902 41.0617 41.5518 42.0618 42.5936 43.149 43.7302 44.3397 44.9805 45.656 46.37 47.1273 47.9335 48.7952 49.7208 50.7205 51.8071 52.9973 54.3 55.7688 57.4335 59.3544 60 18.2357 18.2858 18.3361 18.3866 18.4373 18.4882 18.5393 18.5907 18.6422 18.694 18.746 18.7982 18.8506 18.9032 18.9561 19.0091 19.0624 19.116 19.1697 19.2237 19.278 19.3324 19.3871 19.4421 19.4973 19.5527 19.6084 19.6643 19.7205 19.7769 19.8336 19.8906 19.9478 20.0052 20.063 20.121 20.1792 20.2378 20.2966 20.3557 20.4151 20.4748 20.5347 20.595 20.6555 20.7163 20.7774 20.8389 20.9006 20.9626 21.025 21.0876 21.15 21.2133 21.2769 21.3408 21.4051 21.4697 21.5346 21.5999 21.6655 21.7315 21.7978 21.8644 21.9315 21.9988 22.0666 22.1347 22.2032 22.2721 22.3413 22.411 22.481 22.5514 22.6222 22.6934 22.7651 22.8371 22.9096 22.9824 23.0558 23.1295 23.2037 23.2783 23.3534 23.4289 23.5049 23.5813 23.6582 23.7356 23.8135 23.8919 23.9707 24.0501 24.13 24.2104 24.2913 24.3727 24.4546 24.5371 24.6202 24.7038 24.788 24.8727 24.958 25.0439 25.1304 25.2175 25.3053 25.3936 25.4826 25.5722 25.6624 25.7533 25.8449 25.9371 26.03 26.1237 26.218 26.3131 26.4088 26.5054 26.6026 26.7 26.7988 26.8984 26.9988 27.1 27.202 27.3049 27.4086 27.5132 27.6187 27.725 27.8323 27.9405 28.0497 28.1598 28.2709 28.383 28.4961 28.6102 28.7254 28.8417 28.959 29.0775 29.1971 29.3179 29.4398 29.5629 29.6873 29.8129 29.9398 30.068 30.1975 30.3283 30.4606 30.5943 30.7294 30.866 31.0041 31.1437 31.2849 31.4277 31.5722 31.7184 31.8663 32.016 32.1675 32.3208 32.4761 32.6333 32.7925 32.9537 33.1171 33.2826 33.4504 33.6204 33.7928 33.9676 34.1448 34.3247 34.5071 34.6922 34.8802 35.071 35.2647 35.4615 35.6615 35.8647 36.0712 36.2813 36.4949 36.7122 36.9334 37.1586 37.3879 37.6214 37.8595 38.1 38.3474 38.5998 38.8574 39.1205 39.3891 39.6637 39.9445 40.2317 40.5256 40.8267 41.1351 41.4514 41.7759 42.109 42.4513 42.8032 43.1653 43.5381 43.9225 44.319 44.7286 45.152 45.5902 46.0444 46.5157 47.0055 47.5153 48.0467 48.6 49.1807 49.7898 50.43 51.1048 51.8182 52.5747 53.38 54.2407 55.1652 56.1634 57.2484 58.4366 59.7498 60 24.0087 24.0588 24.1091 24.1596 24.2103 24.2612 24.3123 24.3637 24.4152 24.467 24.519 24.5712 24.6236 24.6762 24.7291 24.7821 24.8354 24.889 24.9427 24.9967 25.051 25.1054 25.1601 25.2151 25.2703 25.3257 25.3814 25.4373 25.4935 25.5499 25.6066 25.6636 25.7208 25.7782 25.836 25.894 25.9522 26.0108 26.0696 26.1287 26.1881 26.2478 26.3077 26.368 26.4285 26.4893 26.55 26.6114 26.6731 26.7352 26.7975 26.8602 26.9231 26.9864 27.05 27.114 27.1782 27.2428 27.3078 27.3731 27.4387 27.5046 27.5709 27.6376 27.7046 27.772 27.8398 27.9079 27.9764 28.0452 28.1145 28.1841 28.2541 28.3246 28.3954 28.4666 28.5382 28.6103 28.6827 28.7556 28.8289 28.9027 28.9769 29.0515 29.1265 29.2021 29.2781 29.3545 29.4314 29.5088 29.5867 29.6651 29.7439 29.8233 29.9032 29.9835 30.0644 30.1459 30.2278 30.3103 30.3934 30.477 30.5612 30.6459 30.7312 30.8171 30.9036 30.9908 31.0785 31.1668 31.2558 31.3454 31.4356 31.5265 31.6181 31.7103 31.8033 31.8969 31.9912 32.0863 32.1821 32.2786 32.3759 32.4739 32.5727 32.6723 32.7727 32.8739 32.9759 33.0788 33.1825 33.2871 33.3926 33.499 33.6063 33.7145 33.8237 33.9338 34.0449 34.157 34.2701 34.3843 34.4995 34.6157 34.7331 34.8516 34.9712 35.0919 35.2139 35.337 35.4614 35.587 35.7139 35.8421 35.9716 36.1025 36.2348 36.3685 36.5036 36.6402 36.7783 36.918 37.0592 37.202 37.3465 37.4927 37.6406 37.7903 37.9418 38.0952 38.2505 38.4077 38.5669 38.7282 38.8916 39.0571 39.2249 39.395 39.5673 39.7422 39.9194 40.0993 40.2818 40.4669 40.6549 40.8457 41.0395 41.2363 41.4363 41.6395 41.8461 42.0562 42.2698 42.4872 42.7084 42.9336 43.163 43.3966 43.6346 43.8773 44.1248 44.3773 44.635 44.8982 45.1669 45.4416 45.7225 46.0098 46.3039 46.6051 46.9137 47.2301 47.5547 47.888 48.2304 48.5825 48.9447 49.3178 49.7024 50.0992 50.5089 50.9326 51.3711 51.8256 52.2972 52.7873 53.2975 53.8293 54.3848 54.9661 55.5757 56.2166 56.8922 57.6 58.3571 59.163 60 30.1318 30.1819 30.2322 30.2827 30.3334 30.3843 30.4354 30.4868 30.5383 30.5901 30.642 30.6942 30.7467 30.7993 30.8521 30.9052 30.9585 31.0121 31.0658 31.1198 31.174 31.2285 31.2832 31.3382 31.3933 31.4488 31.5045 31.5604 31.6166 31.673 31.7297 31.7866 31.8438 31.9013 31.9591 32.0171 32.0753 32.1339 32.1927 32.2518 32.3112 32.3709 32.4308 32.4911 32.5516 32.6124 32.6735 32.735 32.7967 32.8587 32.9211 32.9837 33.0467 33.11 33.1736 33.2375 33.3018 33.3664 33.4313 33.4966 33.5622 33.6282 33.6945 33.7612 33.8282 33.8956 33.9633 34.0315 34.1 34.1688 34.2381 34.3077 34.3777 34.4482 34.519 34.5902 34.6618 34.7339 34.8064 34.8792 34.9526 35.0263 35.1 35.1746 35.2497 35.3252 35.4012 35.4777 35.5546 35.632 35.7099 35.7882 35.8671 35.9464 36.0263 36.1067 36.1876 36.269 36.351 36.4335 36.5166 36.6 36.6842 36.7689 36.8542 36.9401 37.0266 37.1137 37.2015 37.2898 37.3788 37.4684 37.5586 37.6495 37.7411 37.8333 37.9263 38.0199 38.1142 38.2093 38.305 38.4016 38.4988 38.5969 38.6957 38.7953 38.8957 38.9969 39.0989 39.2018 39.3055 39.4101 39.5156 39.622 39.7293 39.8375 39.9466 40.0568 40.1679 40.28 40.3931 40.5072 40.6224 40.7387 40.8561 40.9745 41.0941 41.2149 41.3368 41.46 41.5844 41.71 41.8369 41.9651 42.0946 42.2255 42.3577 42.4914 42.6265 42.7631 42.9 43.0396 43.1809 43.3237 43.4682 43.6143 43.7622 43.9119 44.0634 44.2167 44.372 44.5292 44.6884 44.8496 45.013 45.1785 45.3463 45.5163 45.6887 45.8635 46.0407 46.2206 46.403 46.5881 46.7761 46.9669 47.1606 47.3574 47.5574 47.7605 47.9671 48.1771 48.3908 48.6081 48.8293 49.0544 49.2837 49.5173 49.7553 49.998 50.2454 50.4978 50.7555 51.0186 51.2873 51.5619 51.8427 52.13 52.424 52.7251 53.0336 53.3499 53.6745 54.0077 54.35 54.702 55.0641 55.4371 55.8215 56.2182 56.6278 57.0513 57.4897 57.944 58.4155 58.9054 59.4153 59.9469 60 36.6502 36.7003 36.7506 36.8011 36.8518 36.9027 36.9538 37.0052 37.0567 37.1085 37.1604 37.2126 37.265 37.3177 37.3705 37.4236 37.4769 37.5304 37.5842 37.6382 37.6924 37.7469 37.8016 37.8566 37.9117 37.9672 38.0229 38.0788 38.135 38.1914 38.2481 38.305 38.3622 38.4197 38.4774 38.5355 38.5937 38.6523 38.7111 38.7702 38.8296 38.8892 38.9492 39.0094 39.07 39.1308 39.1919 39.2534 39.3151 39.3771 39.4395 39.5021 39.5651 39.6284 39.692 39.7559 39.8202 39.8848 39.9497 40.015 40.0806 40.1466 40.2129 40.2796 40.3466 40.414 40.4817 40.5499 40.6183 40.6872 40.7565 40.8261 40.8961 40.9666 41.0374 41.1086 41.1802 41.2523 41.3247 41.3976 41.4709 41.5447 41.6189 41.6935 41.7686 41.8441 41.9201 41.9965 42.0735 42.1509 42.2288 42.3071 42.386 42.4654 42.5452 42.6256 42.7065 42.788 42.8699 42.9524 43.0355 43.1191 43.2033 43.288 43.3733 43.4593 43.5458 43.6329 43.7206 43.8089 43.8979 43.9875 44.0778 44.1687 44.2602 44.3525 44.4454 44.5391 44.6334 44.7285 44.8242 44.9208 45.018 45.1161 45.2149 45.3145 45.4149 45.5161 45.6182 45.721 45.8248 45.9294 46.0349 46.1413 46.2485 46.3568 46.4659 46.5761 46.6872 46.7993 46.9124 47.0266 47.1418 47.2581 47.3754 47.4939 47.6135 47.7343 47.8563 47.9794 48.1038 48.2294 48.3563 48.4845 48.6141 48.745 48.8772 49.0109 49.1461 49.2827 49.4208 49.5605 49.7017 49.8446 49.9891 50.1353 50.2832 50.4329 50.5844 50.7378 50.8931 51.0503 51.2096 51.3709 51.5343 51.6998 51.8676 52.0377 52.2101 52.3849 52.5622 52.7421 52.9246 53.1098 53.2977 53.4886 53.6824 53.8792 54.0792 54.2825 54.4891 54.6992 54.9129 55.1303 55.3515 55.5768 55.8061 56.0398 56.2779 56.5206 56.7681 57.0207 57.2784 57.5416 57.8104 58.0851 58.3661 58.6534 58.9476 59.2488 59.5574 59.8739 60 43.6184 43.6685 43.7188 43.7694 43.8201 43.871 43.9221 43.9734 44.025 44.0767 44.1287 44.1809 44.2333 44.286 44.3388 44.3919 44.4452 44.4987 44.5525 44.6065 44.6607 44.7152 44.7699 44.8248 44.88 44.9355 44.9911 45.0471 45.1032 45.1597 45.2164 45.2733 45.3305 45.388 45.4457 45.5037 45.562 45.6206 45.6794 45.7385 45.7979 45.8575 45.9175 45.9777 46.0383 46.0991 46.1602 46.2216 46.2834 46.3454 46.4077 46.4704 46.5334 46.5967 46.6603 46.7242 46.7885 46.8531 46.918 46.9833 47.0489 47.1149 47.1812 47.2478 47.3149 47.3823 47.45 47.5181 47.5866 47.6555 47.7247 47.7944 47.8644 47.9348 48.0057 48.0769 48.1485 48.2206 48.293 48.3659 48.4392 48.513 48.5872 48.6618 48.7369 48.8124 48.8884 48.9648 49.0418 49.1192 49.197 49.2754 49.3543 49.4336 49.5135 49.5939 49.6748 49.7562 49.8382 49.9207 50.0038 50.0874 50.1716 50.2563 50.3416 50.4275 50.514 50.6011 50.6889 50.7772 50.8662 50.9558 51.046 51.1369 51.2285 51.3208 51.4137 51.5073 51.6017 51.6967 51.7925 51.8891 51.9863 52.0844 52.1832 52.2828 52.3832 52.4844 52.5864 52.6893 52.7931 52.8977 53.0031 53.1095 53.2168 53.3251 53.4342 53.5444 53.6555 53.7676 53.8807 53.9949 54.1101 54.2263 54.3437 54.4622 54.5818 54.7026 54.8245 54.9477 55.0721 55.1977 55.3246 55.4528 55.5824 55.7132 55.8455 55.9792 56.1143 56.251 56.3891 56.5288 56.67 56.8129 56.9574 57.1036 57.2515 57.4012 57.5527 57.7061 57.8614 58.0186 58.1778 58.3391 58.5025 58.6681 58.8359 59.006 59.1784 59.3532 59.5305 59.7104 59.8929 60 51.1034 51.1535 51.2038 51.2543 51.305 51.3559 51.407 51.4583 51.5099 51.5617 51.6136 51.6658 51.7182 51.7709 51.8237 51.8768 51.9301 51.9836 52.0374 52.0914 52.1456 52.2 52.2547 52.3096 52.3648 52.4203 52.4759 52.5319 52.5881 52.6445 52.7012 52.7581 52.8153 52.8728 52.9305 52.9885 53.0468 53.1054 53.1642 53.2233 53.2827 53.3423 53.4023 53.4625 53.5231 53.5839 53.645 53.7064 53.7682 53.8302 53.8925 53.9552 54.0182 54.0815 54.1451 54.209 54.2733 54.3379 54.4028 54.4681 54.5337 54.5997 54.666 54.7326 54.7997 54.8671 54.9348 55.0029 55.0714 55.1403 55.2095 55.2792 55.3492 55.4196 55.4904 55.5617 55.6333 55.7054 55.7778 55.8507 55.924 55.9978 56.0719 56.1466 56.2216 56.2972 56.3732 56.4496 56.5265 56.6039 56.6818 56.7602 56.839 56.9184 56.9983 57.0787 57.1596 57.241 57.323 57.4055 57.4885 57.5721 57.6563 57.7411 57.8264 57.9123 57.9988 58.0859 58.1736 58.262 58.3509 58.4405 58.5308 58.6217 58.7133 58.8055 58.8985 58.9921 59.0864 59.1815 59.2773 59.3738 59.4711 59.5691 59.6679 59.7675 59.8679 59.9691 60 59.1877 59.2378 59.2881 59.3386 59.3893 59.4402 59.4913 59.5427 59.5942 59.646 59.6979 59.7501 59.8025 59.8552 59.908 59.9611 60 10 10.5012 11 11.5062 12.015 12.0201 12.5315 13.0455 13.56 14.0793 14.6 15.1247 15.6521 16.1822 16.7152 16.9157 17.4525 17.9923 18.5349 19.0804 19.629 20.1805 20.735 21.2926 21.8533 22.0607 22.6257 23.1939 23.7652 24.3399 24.9178 25.4991 26.0837 26.6717 27.2632 27.482 28.0782 28.678 29.2813 29.8883 30.499 31.1134 31.7315 32.3535 32.9793 33.2108 33.8419 34.4771 35.1162 35.7594 36.4067 37.0582 37.714 38.374 39.0383 39.2842 39.9546 40.6295 41.3089 41.9929 42.6816 43.375 44.0732 44.7763 45.4843 45.7464 46.4612 47.1811 47.9063 48.6366 49.3723 50.1134 50.8599 51.612 52.3698 52.6504 53.416 54.1875 54.9649 55.7483 56.5378 57.3336 58.1357 58.9442 59.7593 60 22.7749 22.825 22.8753 22.9258 22.9765 23.0274 23.0786 23.1299 23.1814 23.2332 23.2852 23.3374 23.3898 23.4424 23.4953 23.5483 23.6016 23.6552 23.7089 23.7629 23.8172 23.8716 23.9263 23.9813 24.0365 24.0919 24.1476 24.2035 24.2597 24.3161 24.3728 24.4298 24.487 24.5444 24.6022 24.6602 24.7185 24.777 24.8358 24.8949 24.9543 25.014 25.0739 25.1342 25.1947 25.2555 25.3167 25.3781 25.4398 25.5018 25.5642 25.6269 25.6898 25.7531 25.8167 25.8807 25.9449 26.0095 26.0745 26.1397 26.2054 26.2713 26.3376 26.4043 26.4713 26.5387 26.6065 26.6746 26.7431 26.8119 26.8812 26.9508 27.0209 27.0913 27.1621 27.2333 27.305 27.377 27.4495 27.5224 27.5957 27.6694 27.7436 27.8182 27.8933 27.9688 28.0448 28.1213 28.1982 28.2756 28.3535 28.4319 28.5107 28.5901 28.67 28.7503 28.8313 28.9127 28.9947 29.0772 29.1602 29.2438 29.328 29.4128 29.4981 29.584 29.6705 29.7576 29.8453 29.9337 30.0226 30.1122 30.2025 30.2934 30.385 30.4772 30.5702 30.6638 30.7581 30.8532 30.949 31.0455 31.1428 31.2408 31.3396 31.4392 31.5396 31.6409 31.7429 31.8458 31.9495 32.0541 32.1596 32.266 32.3733 32.4815 32.5907 32.7 32.8111 32.9232 33.0363 33.1505 33.2657 33.3819 33.4993 33.6178 33.7374 33.8582 33.9801 34.1032 34.2276 34.3532 34.4801 34.6083 34.7379 34.8687 35.001 35.1347 35.2698 35.4064 35.5445 35.6842 35.8254 35.9683 36.1128 36.2589 36.4069 36.5565 36.708 36.8614 37.0167 37.1739 37.3331 37.4944 37.6578 37.8233 37.9911 38.1612 38.3336 38.5084 38.6857 38.8655 39.048 39.2331 39.4211 39.6119 39.8057 40.0025 40.2025 40.4057 40.6123 40.8224 41.036 41.2534 41.4746 41.6998 41.9292 42.1628 42.4008 42.6435 42.891 43.1435 43.4012 43.6644 43.9331 44.2078 44.4887 44.776 45.0701 45.3713 45.6799 45.9963 46.3209 46.6542 46.9966 47.3487 47.711 48.084 48.4686 48.8654 49.2751 49.6988 50.1373 50.5918 51.0634 51.5535 52.0637 52.5955 53.151 53.7323 54.3419 54.9828 55.6584 56.3726 57.1301 57.9364 58.7984 59.7242 60 28.2357 28.2858 28.3361 28.3866 28.4373 28.4882 28.5393 28.5907 28.6422 28.694 28.746 28.7982 28.8506 28.9032 28.9561 29.0091 29.0624 29.116 29.1697 29.2237 29.278 29.3324 29.3871 29.4421 29.4973 29.5527 29.6084 29.6643 29.7205 29.7769 29.8336 29.8906 29.9478 30.0052 30.063 30.121 30.1792 30.2378 30.2966 30.3557 30.4151 30.4748 30.5347 30.595 30.6555 30.7163 30.7774 30.8389 30.9 30.962 31.0244 31.087 31.15 31.2133 31.2769 31.3408 31.4051 31.4697 31.5346 31.5999 31.6655 31.7315 31.7978 31.8644 31.9315 31.9988 32.0666 32.1347 32.2032 32.2721 32.3413 32.4109 32.481 32.5514 32.6222 32.6934 32.7651 32.8371 32.9096 32.9824 33.0558 33.1295 33.2037 33.2783 33.3534 33.4289 33.5049 33.5813 33.6582 33.7356 33.8135 33.8919 33.9707 34.0501 34.13 34.2103 34.2913 34.3727 34.4546 34.5371 34.6202 34.7038 34.788 34.8727 34.958 35.0439 35.1304 35.2175 35.3053 35.3936 35.4825 35.5721 35.6624 35.7533 35.8449 35.9371 36.03 36.1237 36.218 36.3131 36.4088 36.5053 36.6026 36.7007 36.7995 36.8991 36.9994 37.1007 37.2027 37.3056 37.4093 37.5139 37.6194 37.7257 37.833 37.9412 38.0504 38.1605 38.2716 38.3837 38.4968 38.611 38.7262 38.8425 38.9598 39.0783 39.1979 39.3187 39.4406 39.5637 39.6881 39.8137 39.9406 40.0688 40.1983 40.3292 40.4615 40.5951 40.7303 40.8669 41.005 41.1446 41.2859 41.4287 41.5732 41.7194 41.8673 42.017 42.1685 42.3218 42.4771 42.6343 42.7935 42.9548 43.1182 43.2837 43.4515 43.6215 43.7939 43.9687 44.146 44.3259 44.5083 44.6935 44.8814 45.0722 45.266 45.4628 45.6628 45.866 46.0726 46.2827 46.4963 46.7137 46.9349 47.1601 47.3894 47.623 47.8611 48.1037 48.3512 48.6037 48.8614 49.1245 49.3933 49.668 49.9488 50.2361 50.5302 50.8313 51.1399 51.4563 51.7809 52.1142 52.4566 52.8086 53.1709 53.5439 53.9284 54.3252 54.7349 55.1585 55.597 56.0515 56.5231 57.0131 57.5232 58.055 58.6104 59.1916 59.8012 60 34.0087 34.0588 34.1091 34.1596 34.2103 34.2612 34.3123 34.3637 34.4152 34.467 34.519 34.5712 34.6236 34.6762 34.7291 34.7821 34.8354 34.889 34.9427 34.9967 35.051 35.1054 35.1601 35.2151 35.2703 35.3257 35.3814 35.4373 35.4935 35.5499 35.6066 35.6636 35.7208 35.7782 35.836 35.894 35.9522 36.0108 36.0696 36.1287 36.1881 36.2478 36.3077 36.368 36.4285 36.4893 36.5504 36.6119 36.6736 36.7356 36.798 36.8606 36.9236 36.9869 37.0505 37.1145 37.1787 37.2433 37.3083 37.3735 37.4391 37.5051 37.5714 37.6381 37.7051 37.7725 37.8403 37.9084 37.9769 38.0457 38.115 38.1846 38.2547 38.3251 38.3959 38.4671 38.5388 38.6108 38.6833 38.7562 38.8295 38.9032 38.9774 39.052 39.1271 39.2026 39.2786 39.3551 39.432 39.5094 39.5873 39.6656 39.7445 39.8239 39.9037 39.9841 40.065 40.1465 40.2284 40.311 40.394 40.4776 40.5618 40.6465 40.7319 40.8178 40.9043 40.9914 41.0791 41.1675 41.2564 41.346 41.4363 41.5272 41.6188 41.711 41.804 41.8976 41.9919 42.087 42.1828 42.2793 42.3766 42.4746 42.5734 42.673 42.7734 42.8746 42.9767 43.0796 43.1833 43.2879 43.3934 43.4998 43.6071 43.7153 43.8245 43.9346 44.0457 44.1578 44.2709 44.3851 44.5003 44.6166 44.734 44.8524 44.9721 45.0928 45.2148 45.3379 45.4623 45.588 45.7149 45.8431 45.9726 46.1035 46.2358 46.3695 46.5046 46.6412 46.7793 46.919 47.0602 47.2031 47.3476 47.4938 47.6417 47.7914 47.943 48.0963 48.2516 48.4089 48.5681 48.7294 48.8928 49.0583 49.2261 49.3962 49.5686 49.7435 49.9208 50.1 50.2825 50.4677 50.6556 50.8465 51.0402 51.2371 51.4371 51.6403 51.8469 52.057 52.2707 52.4881 52.7093 52.9345 53.1639 53.3975 53.6356 53.8783 54.1258 54.3783 54.636 54.8992 55.168 55.4427 55.7236 56.011 56.3051 56.6063 56.9149 57.2313 57.556 57.8893 58.2318 58.5839 58.9462 59.3193 59.7039 60 40.1318 40.1819 40.2322 40.2827 40.3334 40.3843 40.4354 40.4868 40.5383 40.5901 40.642 40.6942 40.7467 40.7993 40.8521 40.9052 40.9585 41.0121 41.0658 41.1198 41.174 41.2285 41.2832 41.3382 41.3933 41.4488 41.5045 41.5604 41.6166 41.673 41.7297 41.7866 41.8438 41.9013 41.9591 42.0171 42.0753 42.1339 42.1927 42.2518 42.3112 42.3709 42.4308 42.4911 42.5516 42.6124 42.6735 42.735 42.7967 42.8587 42.9211 42.9837 43.0467 43.11 43.1736 43.2375 43.3018 43.3664 43.4313 43.4966 43.5622 43.6282 43.6945 43.7612 43.8282 43.8956 43.9633 44.0315 44.1 44.1688 44.2381 44.3077 44.3777 44.4482 44.519 44.5902 44.6618 44.7339 44.8064 44.8792 44.9526 45.0263 45.1005 45.1751 45.2502 45.3257 45.4017 45.4782 45.5551 45.6325 45.7104 45.7887 45.8676 45.947 46.0268 46.1072 46.1881 46.2696 46.3515 46.434 46.5171 46.6007 46.6849 46.7696 46.855 46.9409 47.0274 47.1145 47.2022 47.2905 47.3795 47.4691 47.5594 47.6503 47.7419 47.8341 47.927 48.0207 48.115 48.2101 48.3059 48.4024 48.4997 48.5977 48.6965 48.7961 48.8965 48.9977 49.0998 49.2027 49.3064 49.411 49.5165 49.6229 49.7302 49.8384 49.9476 50.0577 50.1688 50.2809 50.394 50.5082 50.6234 50.7397 50.857 50.9755 51.0952 51.2159 51.3379 51.461 51.5854 51.711 51.8379 51.9661 52.0957 52.2266 52.3589 52.4925 52.6277 52.7643 52.9024 53.0421 53.1833 53.3262 53.4707 53.6169 53.7648 53.9145 54.066 54.2194 54.3747 54.5319 54.6912 54.8525 55.0159 55.1814 55.3492 55.5193 55.6917 55.8665 56.0438 56.2237 56.4062 56.5914 56.7794 56.9702 57.164 57.3609 57.5609 57.7641 57.9707 58.1808 58.3945 58.6119 58.8331 59.0584 59.2877 59.5214 59.7595 60 46.6502 46.7003 46.7506 46.8011 46.8518 46.9027 46.9538 47.0052 47.0567 47.1085 47.1604 47.2126 47.265 47.3177 47.3705 47.4236 47.4769 47.5304 47.5842 47.6382 47.6924 47.7469 47.8016 47.8566 47.9117 47.9672 48.0229 48.0788 48.135 48.1914 48.2481 48.305 48.3622 48.4197 48.4774 48.5355 48.5937 48.6523 48.7111 48.7702 48.8296 48.8892 48.9492 49.0094 49.07 49.1308 49.1919 49.2534 49.3151 49.3771 49.4395 49.5021 49.5651 49.6284 49.692 49.7559 49.8202 49.8848 49.9497 50.015 50.0806 50.1466 50.2129 50.2796 50.3466 50.414 50.4817 50.5499 50.6183 50.6872 50.7565 50.8261 50.8961 50.9666 51.0374 51.1086 51.1802 51.2523 51.3247 51.3976 51.4709 51.5447 51.6189 51.6935 51.7686 51.8441 51.9201 51.9965 52.0735 52.1509 52.2288 52.3071 52.386 52.4654 52.5452 52.6256 52.7065 52.788 52.8699 52.9524 53.0355 53.1191 53.2033 53.288 53.3733 53.4593 53.5458 53.6329 53.7206 53.8089 53.8979 53.9875 54.0778 54.1687 54.2602 54.3525 54.4454 54.5391 54.6334 54.7285 54.8242 54.9208 55.018 55.1161 55.2149 55.3145 55.4149 55.5161 55.6182 55.721 55.8248 55.9294 56.0349 56.1413 56.2485 56.3568 56.4659 56.5761 56.6872 56.7993 56.9124 57.0266 57.1418 57.2581 57.3754 57.4939 57.6135 57.7343 57.8563 57.9794 58.1038 58.2294 58.3563 58.4845 58.6141 58.745 58.8772 59.0109 59.1461 59.2827 59.4208 59.5605 59.7017 59.8446 59.9891 60 53.6184 53.6685 53.7188 53.7694 53.8201 53.871 53.9221 53.9734 54.025 54.0767 54.1287 54.1809 54.2333 54.286 54.3388 54.3919 54.4452 54.4987 54.5525 54.6065 54.6607 54.7152 54.7699 54.8248 54.88 54.9355 54.9911 55.0471 55.1032 55.1597 55.2164 55.2733 55.3305 55.388 55.4457 55.5037 55.562 55.6206 55.6794 55.7385 55.7979 55.8575 55.9175 55.9777 56.0383 56.0991 56.1602 56.2216 56.2834 56.3454 56.4077 56.4704 56.5334 56.5967 56.6603 56.7242 56.7885 56.8531 56.918 56.9833 57.0489 57.1149 57.1812 57.2478 57.3149 57.3823 57.45 57.5181 57.5866 57.6555 57.7247 57.7944 57.8644 57.9348 58.0057 58.0769 58.1485 58.2206 58.293 58.3659 58.4392 58.513 58.5872 58.6618 58.7369 58.8124 58.8884 58.9648 59.0418 59.1192 59.197 59.2754 59.3543 59.4336 59.5135 59.5939 59.6748 59.7562 59.8382 59.9207 60 13 13.5012 14.005 14.5113 15.0201 15.5315 16.0455 16.5621 17.0814 17.6033 18.128 18.6554 19.1856 19.7186 19.9157 20.4525 20.9923 21.5349 22.0804 22.629 23.1805 23.735 24.2926 24.8533 25.0607 25.6257 26.1939 26.7652 27.3399 27.9178 28.4991 29.0837 29.6717 30.2632 30.482 31.0782 31.678 32.2813 32.8883 33.499 34.1134 34.7315 35.3535 35.9793 36.2108 36.8419 37.4771 38.1162 38.7594 39.4067 40.0582 40.714 41.374 42.0383 42.2842 42.9546 43.6295 44.3089 44.9929 45.6816 46.375 47.0732 47.7763 48.4843 48.7464 49.4612 50.1811 50.9063 51.6366 52.3723 53.1134 53.8599 54.612 55.3698 55.6504 56.416 57.1875 57.9649 58.7483 59.5378 60 25.7749 25.825 25.8753 25.9258 25.9765 26.0274 26.0786 26.1299 26.1814 26.2332 26.2852 26.3374 26.3898 26.4424 26.4953 26.5483 26.6016 26.6552 26.7089 26.7629 26.8172 26.8716 26.9263 26.9813 27.0365 27.0919 27.1476 27.2035 27.2597 27.3161 27.3728 27.4298 27.487 27.5444 27.6022 27.6602 27.7185 27.777 27.8358 27.8949 27.9543 28.014 28.0739 28.1342 28.1947 28.2555 28.3167 28.3781 28.4398 28.5018 28.5642 28.6269 28.6898 28.7531 28.8167 28.8807 28.9449 29.0095 29.0745 29.1397 29.2054 29.2713 29.3376 29.4043 29.4713 29.5387 29.6065 29.6746 29.7431 29.8119 29.8812 29.9508 30.0209 30.0913 30.1621 30.2333 30.305 30.377 30.4495 30.5224 30.5957 30.6694 30.7436 30.8182 30.8933 30.9688 31.0448 31.1213 31.1982 31.2756 31.3535 31.4319 31.5107 31.5901 31.67 31.7503 31.8313 31.9127 31.9947 32.0772 32.1602 32.2438 32.328 32.4128 32.4981 32.584 32.6705 32.7576 32.8453 32.9337 33.0226 33.1122 33.2025 33.2934 33.385 33.4772 33.5702 33.6638 33.7581 33.8532 33.949 34.0455 34.1428 34.2408 34.3396 34.4392 34.5396 34.6409 34.7429 34.8458 34.9495 35.0541 35.1596 35.266 35.3733 35.4815 35.5907 35.7 35.8111 35.9232 36.0363 36.1505 36.2657 36.3819 36.4993 36.6178 36.7374 36.8582 36.9801 37.1032 37.2276 37.3532 37.4801 37.6083 37.7379 37.8687 38.001 38.1347 38.2698 38.4064 38.5445 38.6842 38.8254 38.9683 39.1128 39.2589 39.4069 39.5565 39.708 39.8614 40.0167 40.1739 40.3331 40.4944 40.6578 40.8233 40.9911 41.1612 41.3336 41.5084 41.6857 41.8655 42.048 42.2331 42.4211 42.6119 42.8057 43.0025 43.2025 43.4057 43.6123 43.8224 44.036 44.2534 44.4746 44.6998 44.9292 45.1628 45.4008 45.6435 45.891 46.1435 46.4012 46.6644 46.9331 47.2078 47.4887 47.776 48.0701 48.3713 48.6799 48.9963 49.3209 49.6542 49.9966 50.3487 50.711 51.084 51.4686 51.8654 52.2751 52.6988 53.1373 53.5918 54.0634 54.5535 55.0637 55.5955 56.151 56.7323 57.3419 57.9828 58.6584 59.3726 60 31.2357 31.2858 31.3361 31.3866 31.4373 31.4882 31.5393 31.5907 31.6422 31.694 31.746 31.7982 31.8506 31.9032 31.9561 32.0091 32.0624 32.116 32.1697 32.2237 32.278 32.3324 32.3871 32.4421 32.4973 32.5527 32.6084 32.6643 32.7205 32.7769 32.8336 32.8906 32.9478 33.0052 33.063 33.121 33.1792 33.2378 33.2966 33.3557 33.4151 33.4748 33.5347 33.595 33.6555 33.7163 33.7774 33.8389 33.9 33.962 34.0244 34.087 34.15 34.2133 34.2769 34.3408 34.4051 34.4697 34.5346 34.5999 34.6655 34.7315 34.7978 34.8644 34.9315 34.9988 35.0666 35.1347 35.2032 35.2721 35.3413 35.4109 35.481 35.5514 35.6222 35.6934 35.7651 35.8371 35.9096 35.9824 36.0558 36.1295 36.2037 36.2783 36.3534 36.4289 36.5049 36.5813 36.6582 36.7356 36.8135 36.8919 36.9707 37.0501 37.13 37.2103 37.2913 37.3727 37.4546 37.5371 37.6202 37.7038 37.788 37.8727 37.958 38.0439 38.1304 38.2175 38.3053 38.3936 38.4825 38.5721 38.6624 38.7533 38.8449 38.9371 39.03 39.1237 39.218 39.3131 39.4088 39.5053 39.6026 39.7007 39.7995 39.8991 39.9994 40.1007 40.2027 40.3056 40.4093 40.5139 40.6194 40.7257 40.833 40.9412 41.0504 41.1605 41.2716 41.3837 41.4968 41.611 41.7262 41.8425 41.9598 42.0783 42.1979 42.3187 42.4406 42.5637 42.6881 42.8137 42.9406 43.0688 43.1983 43.3292 43.4615 43.5951 43.7303 43.8669 44.005 44.1446 44.2859 44.4287 44.5732 44.7194 44.8673 45.017 45.1685 45.3218 45.4771 45.6343 45.7935 45.9548 46.1182 46.2837 46.4515 46.6215 46.7939 46.9687 47.146 47.3259 47.5083 47.6935 47.8814 48.0722 48.266 48.4628 48.6628 48.866 49.0726 49.2827 49.4963 49.7137 49.9349 50.1601 50.3894 50.623 50.8611 51.1037 51.3512 51.6037 51.8614 52.1245 52.3933 52.668 52.9488 53.2361 53.5302 53.8313 54.1399 54.4563 54.7809 55.1142 55.4566 55.8086 56.1709 56.5439 56.9284 57.3252 57.7349 58.1585 58.597 59.0515 59.5231 60 37.0087 37.0588 37.1091 37.1596 37.2103 37.2612 37.3123 37.3637 37.4152 37.467 37.519 37.5712 37.6236 37.6762 37.7291 37.7821 37.8354 37.889 37.9427 37.9967 38.051 38.1054 38.1601 38.2151 38.2703 38.3257 38.3814 38.4373 38.4935 38.5499 38.6066 38.6636 38.7208 38.7782 38.836 38.894 38.9522 39.0108 39.0696 39.1287 39.1881 39.2478 39.3077 39.368 39.4285 39.4893 39.5504 39.6119 39.6736 39.7356 39.798 39.8606 39.9236 39.9869 40.0505 40.1145 40.1787 40.2433 40.3083 40.3735 40.4391 40.5051 40.5714 40.6381 40.7051 40.7725 40.8403 40.9084 40.9769 41.0457 41.115 41.1846 41.2547 41.3251 41.3959 41.4671 41.5388 41.6108 41.6833 41.7562 41.8295 41.9032 41.9774 42.052 42.1271 42.2026 42.2786 42.3551 42.432 42.5094 42.5873 42.6656 42.7445 42.8239 42.9037 42.9841 43.065 43.1465 43.2284 43.311 43.394 43.4776 43.5618 43.6465 43.7319 43.8178 43.9043 43.9914 44.0791 44.1675 44.2564 44.346 44.4363 44.5272 44.6188 44.711 44.804 44.8976 44.9919 45.087 45.1828 45.2793 45.3766 45.4746 45.5734 45.673 45.7734 45.8746 45.9767 46.0796 46.1833 46.2879 46.3934 46.4998 46.6071 46.7153 46.8245 46.9346 47.0457 47.1578 47.2709 47.3851 47.5003 47.6166 47.734 47.8524 47.9721 48.0928 48.2148 48.3379 48.4623 48.588 48.7149 48.8431 48.9726 49.1035 49.2358 49.3695 49.5046 49.6412 49.7793 49.919 50.0602 50.2031 50.3476 50.4938 50.6417 50.7914 50.943 51.0963 51.2516 51.4089 51.5681 51.7294 51.8928 52.0583 52.2261 52.3962 52.5686 52.7435 52.9208 53.1 53.2825 53.4677 53.6556 53.8465 54.0402 54.2371 54.4371 54.6403 54.8469 55.057 55.2707 55.4881 55.7093 55.9345 56.1639 56.3975 56.6356 56.8783 57.1258 57.3783 57.636 57.8992 58.168 58.4427 58.7236 59.011 59.3051 59.6063 59.9149 60 43.1318 43.1819 43.2322 43.2827 43.3334 43.3843 43.4354 43.4868 43.5383 43.5901 43.642 43.6942 43.7467 43.7993 43.8521 43.9052 43.9585 44.0121 44.0658 44.1198 44.174 44.2285 44.2832 44.3382 44.3933 44.4488 44.5045 44.5604 44.6166 44.673 44.7297 44.7866 44.8438 44.9013 44.9591 45.0171 45.0753 45.1339 45.1927 45.2518 45.3112 45.3709 45.4308 45.4911 45.5516 45.6124 45.6735 45.735 45.7967 45.8587 45.9211 45.9837 46.0467 46.11 46.1736 46.2375 46.3018 46.3664 46.4313 46.4966 46.5622 46.6282 46.6945 46.7612 46.8282 46.8956 46.9633 47.0315 47.1 47.1688 47.2381 47.3077 47.3777 47.4482 47.519 47.5902 47.6618 47.7339 47.8064 47.8792 47.9526 48.0263 48.1005 48.1751 48.2502 48.3257 48.4017 48.4782 48.5551 48.6325 48.7104 48.7887 48.8676 48.947 49.0268 49.1072 49.1881 49.2696 49.3515 49.434 49.5171 49.6007 49.6849 49.7696 49.855 49.9409 50.0274 50.1145 50.2022 50.2905 50.3795 50.4691 50.5594 50.6503 50.7419 50.8341 50.927 51.0207 51.115 51.2101 51.3059 51.4024 51.4997 51.5977 51.6965 51.7961 51.8965 51.9977 52.0998 52.2027 52.3064 52.411 52.5165 52.6229 52.7302 52.8384 52.9476 53.0577 53.1688 53.2809 53.394 53.5082 53.6234 53.7397 53.857 53.9755 54.0952 54.2159 54.3379 54.461 54.5854 54.711 54.8379 54.9661 55.0957 55.2266 55.3589 55.4925 55.6277 55.7643 55.9024 56.0421 56.1833 56.3262 56.4707 56.6169 56.7648 56.9145 57.066 57.2194 57.3747 57.5319 57.6912 57.8525 58.0159 58.1814 58.3492 58.5193 58.6917 58.8665 59.0438 59.2237 59.4062 59.5914 59.7794 59.9702 60 49.6502 49.7003 49.7506 49.8011 49.8518 49.9027 49.9538 50.0052 50.0567 50.1085 50.1604 50.2126 50.265 5