<?xml version="1.0"?><VTKFile type="PolyData" version="0.1" byte_order="LittleEndian">
    <PolyData>
        <Piece NumberOfLines="1138" NumberOfPoints="3514">
            <PointData Scalars="Pointdata">
                <DataArray type="Float32" Name="time" NumberOfComponents="1" format="ascii">0 0.25423277400456984 0.46396848555295472 0.67969745012133265 0.90177228612504756 1.1305776775965222 1.3665343839253865 1.6101038966431296 1.8617938727377197 2.1221645052609648 2.3918360322126171 2.6714976368346179 2.9619180606597673 3.263958340720253 3.5785872024367773 3.9068998016544825 4.2501407302045937 4.609732504562106 4.9873111846308369 5.384771377444511 5.8043237589629522 6.2485695397749046 6.7205982410080258 7.2241181249383626 7.7636333099793982 8.344689178130146 8.9742203339006572 9.6610572684862834 10.416687390767981 11.256440947335513 12.201422689810624 13.281834074722878 14.543092432506809 16.058156206524433 17.955580171023389 20.495945603133439 24.35267914501393 30 0.46396848156527809 1.1178592738299935 1.805442343125957 2.5303792544433881 3.2969629340295308 4.1102717222783047 4.9763734828765456 5.9026006507580284 6.8979280297358327 7.9735031469617779 9.1434096341152884 10.425798439873285 11.844622461024185 13.432407482543665 15.234904450807877 17.319400288666149 19.790795636794144 22.82620760461705 26.761617406018033 30 0.67969744601807125 0.88708137998480452 1.3527097004188349 1.9783929395352127 2.6093298900098367 3.2816106889215488 4.0032157635151364 5.1967769709939562 29.999999999994134 1.43319637558957 1.5006509785410145 1.7970203341861251 30.000000000000004 1.5006509785410145 30.000000000000004 1.7970203341861251 30.000000000000004 2.0029900677724708 2.0561537659475353 2.3025212227712992 30 2.0561537659475353 29.999999999999996 2.3025212227712992 30 2.8053473061794594 2.8715377132389786 3.1801711977743627 30 2.8715377132389786 30 3.1801711977743627 30 3.6725680880558329 3.7316325354730995 4.0245961927454239 30 3.7316325354730995 30 4.0245961927454239 30 4.6912154371070072 4.7511124193346603 5.0394344218704843 30 4.7511124193346603 30 5.0394344218704843 30 5.959983313469694 6.0231214181124546 6.3400971767890324 30 6.0231214181124546 30 6.3400971767890324 30 9.0139294775503203 9.0791030697149129 9.3876654136163857 30 9.0791030697149129 30 9.3876654136163857 30 0.9017722818993007 1.1421519660967812 1.7715912844846065 2.2693230721605024 3.4186228011055522 29.999999979252657 1.3477831974764631 1.4050361452474538 1.6939483463368825 30 1.4050361452474538 30 1.6939483463368825 30 2.0849168013194235 2.1423976009291672 2.4417210150180377 30.000000000000004 2.1423976009291672 30.000000000000007 2.4417210150180377 30.000000000000007 2.7121182155588031 2.7777518485547947 3.0683134389099536 30.000000000000004 2.7777518485547947 30 3.0683134389099536 30.000000000000004 4.498182096366083 4.5656030382367572 4.869573158572523 30.000000000000004 4.5656030382367572 30 4.869573158572523 30 1.1305776732407524 1.3306561339742538 1.6259096793516903 2.0198914119254283 2.5952298923744306 3.4578913233069306 29.999999999999996 1.895225571897114 1.9477697322277985 2.2361189600485956 30 1.9477697322277985 30 2.2361189600485956 30 2.3009182290908248 2.3609346993944476 2.6253189975817843 29.999999999999996 2.3609346993944476 29.999999999999996 2.6253189975817843 29.999999999999993 2.8850548538863818 2.9331843506882991 3.1763456757752273 29.999999999999996 2.9331843506882991 30 3.1763456757752273 29.999999999999996 3.8769432806405391 3.926121555848936 4.1869388836023456 29.999999999999996 3.926121555848936 29.999999999999996 4.1869388836023456 29.999999999999996 6.1694210175285757 6.2318178488539315 6.4879525714899824 30 6.2318178488539315 30 6.4879525714899824 30 1.3665343794313383 1.5656186632211466 2.0061634849899388 2.4926958072983112 3.0126107902861428 3.6108144325741902 4.121129182436289 4.9465956674696567 5.9047734828374159 7.1669953814873919 17.508938423412957 30 2.121856115315631 2.1750002338592593 2.41655010023723 29.999999999999996 2.1750002338592593 29.999999999999996 2.41655010023723 30 2.121856115315631 2.1926226359943963 2.4629043111719127 29.999999999999996 2.1926226359943963 29.999999999999996 2.4629043111719127 29.999999999999996 2.6463710287927595 2.7030539825388322 2.9516826521622872 30 2.7030539825388322 30 2.9516826521622872 30 3.2421394658689175 3.2859303697290949 3.5150228680204259 30 3.2859303697290949 30 3.5150228680204259 30.000000000000004 3.9023012242353756 3.9594449345599299 4.2374874026860656 30 3.9594449345599299 30 4.2374874026860656 30 4.7002159259769236 4.7468204848466105 4.9820096840398902 30 4.7468204848466105 30 4.9820096840398902 30 5.4232006419809151 5.481170144443321 5.7443040577534195 29.999999999999996 5.481170144443321 29.999999999999996 5.7443040577534195 29.999999999999993 6.710487480157731 6.760322179742583 7.0086527189658767 30 6.760322179742583 30 7.0086527189658767 30 8.5092417105168785 8.5734799723524908 8.8836825836459639 29.999999999999996 8.5734799723524908 29.999999999999996 8.8836825836459639 29.999999999999996 12.201585598246048 12.262181207600369 12.577556278519145 30 12.262181207600369 30 12.577556278519145 30 1.6101038920017356 2.2815605141588118 2.9785716177117987 3.7031595420842796 4.4575966195422012 5.2444481566300105 6.0666250693848713 6.9274488971330666 7.8307328614193672 8.7808839697590688 9.7830330815057351 10.843202660259282 11.968526126834943 13.167539115353605 14.450572912627404 15.830296368551551 17.322479039787197 18.947093661151861 20.729956829721065 22.705257652344763 24.91962183355691 27.438986664124055 30 1.8617938679389903 2.1677089763399957 2.5811629351817569 3.0704210077397125 3.5420462249300639 3.9622275527012603 4.362109694766958 5.1480149086325424 6.0398511215822746 6.8264350581542486 8.1199675500225901 9.2467492994433602 10.818212014931193 13.128339579119734 30 2.7907386132232488 2.8533670323128182 3.1238289037789326 30 2.8533670323128182 30 3.1238289037789326 30 3.2549433404427868 3.3162583535442387 3.5859003622659342 30 3.3162583535442387 30 3.5859003622659342 30.000000000000004 3.8099872570045425 3.8688407642118681 4.1298617871458339 30.000000000000004 3.8688407642118681 30.000000000000004 4.1298617871458339 30.000000000000004 4.351552038817438 4.4039057070106225 4.6785157528636141 30.000000000000004 4.4039057070106225 30.000000000000004 4.6785157528636141 30.000000000000004 4.8400452256081241 4.8996867676526792 5.1719287021515052 30 4.8996867676526792 30 5.1719287021515052 30 5.310753343467284 5.3653665923079519 5.6146348985224659 30 5.3653665923079519 30 5.6146348985224659 30 6.2546971549890911 6.3118101548391987 6.6017660169943175 30.000000000000004 6.3118101548391987 30 6.6017660169943175 30.000000000000004 7.3619817150241911 7.4198675362506181 7.676315540357348 30 7.4198675362506181 30 7.676315540357348 30 8.3782212089595411 8.4339219591861188 8.6918937202542228 30.000000000000004 8.4339219591861188 30.000000000000004 8.6918937202542228 30.000000000000007 10.157092658522416 10.220742933713971 10.511366943754963 30 10.220742933713971 30 10.511366943754963 30 11.860521634070025 11.901815928633884 12.119610301021343 30 11.901815928633884 30 12.119610301021343 30 14.631503850623636 14.698958036631552 15.000450381629394 30 14.698958036631552 30 15.000450381629394 30 20.808331073198488 20.872593906001033 21.145826913618979 30.000000000000004 20.872593906001033 30 21.145826913618979 30.000000000000004 2.1221645002938589 2.4158045493829303 2.7699178818730816 3.1501245428608522 3.4681701144383421 3.7716634579502517 4.1112464392037209 4.4078212239674706 4.9127532624498711 5.2174127519678226 5.7213838645415596 6.1243221643880936 6.4468563549957185 6.796819994727727 7.4353073726465873 7.8649412849005067 8.4672516693127005 9.1683064408488164 9.8842334550896673 10.529387151717311 11.515234202122745 12.247562894608661 13.003959488395209 14.026715760643636 14.735630553816017 15.862117786312753 16.951678674789328 17.778944828612861 18.982342180788411 19.854815847636825 21.301723834873872 23.375088273414125 24.718112149528174 27.29934446895578 29.999999999999975 3.2023526313534663 3.2732717825710185 3.5741545609907419 30 3.2732717825710185 30 3.5741545609907419 30 3.2023526313534663 3.2617308476642721 3.5238446873815392 30 3.2617308476642721 30 3.5238446873815392 30 3.5776954017656784 3.6320253735225112 3.8860304316194547 30 3.6320253735225112 30 3.8860304316194547 30 3.9813537101242198 4.0421760583504156 4.323770984850805 30.000000000000004 4.0421760583504156 30 4.323770984850805 30 4.3195553257592456 4.3773096213324845 4.6625486721937923 30 4.3773096213324845 30 4.6625486721937923 30 4.6427526765083815 4.7023592106993526 4.9708643374260708 30 4.7023592106993526 30 4.9708643374260708 30 5.0049416881118161 5.0616016253032576 5.3344707103072988 30 5.0616016253032576 30 5.3344707103072988 30 5.3217550277719532 5.3744353785570871 5.647369151489956 30 5.3744353785570871 30 5.647369151489956 30 5.8622413305927203 5.9123285723431156 6.1374993799990634 30 5.9162741856951362 30.000000000000004 6.1491224753932405 30 6.1890426633834243 6.2409672689954245 6.5137224961711659 30 6.2409672689954245 30 6.5137224961711659 30 6.7308228959103396 6.7859051979679395 7.0833356633465971 29.999999999999996 6.7859051979679395 29.999999999999996 7.0833356633465971 29.999999999999993 7.16508694815853 7.2240000682987491 7.5260421143568816 30 7.2240000682987491 30 7.5260421143568816 30 7.5134226874746028 7.5715358294252821 7.8172253058139205 30 7.5715358294252821 30 7.8172253058139205 30 7.8921355609965405 7.9440083800488965 8.1896503113792942 30 7.9440083800488965 30 8.1896503113792942 30 8.5851713087377721 8.6409793139747393 8.8954554164241113 30 8.6409793139747393 30 8.8954554164241113 30 9.0530983113257015 9.1383527107948996 9.4656984307405612 30 9.1383527107948996 30 9.4656984307405612 30 9.7113485488349358 9.7732103914422215 10.05878255018731 30 9.7732103914422215 30 10.05878255018731 29.999999999999996 10.481001544552292 10.539355394812107 10.801094591581128 30 10.539355394812107 30 10.801094591581128 30 11.271088666169053 11.327756188568724 11.591828497151484 30 11.327756188568724 30 11.591828497151484 30 11.986848013972327 12.032730072371653 12.298415921339 30 12.032730072371653 30 12.298415921339 30 13.088002243570163 13.149437121827617 13.448416095014283 30 13.149437121827617 30 13.448416095014283 30 13.912216896022613 13.960232286953852 14.221712118471743 30 13.960232286953852 30 14.221712118471743 30 14.76953095760194 14.818176956918741 15.079818005094488 30 14.818176956918741 30 15.079818005094488 30 15.939242040680288 15.993795220344294 16.279524689750659 30 15.993795220344294 30 16.279524689750659 30 16.757675390159314 16.800710239500702 17.036429701567403 30 16.800710239500702 30.000000000000004 17.036429701567403 30 18.072321191665065 18.117353255296557 18.33875710589237 30 18.117353255296557 30 18.33875710589237 30 19.36202857867606 19.412107100312674 19.683271296949862 30 19.412107100312674 30 19.683271296949862 30 20.354449386038773 20.407221185926645 20.692682888905189 29.999999999999996 20.407221185926645 30 20.692682888905189 30 21.820704533039621 21.882811746599476 22.163088283961965 29.984329914475055 21.882811746599476 30 22.163088283961965 29.999155566102825 22.902305774109742 22.942996823612578 23.209156794968493 29.988417896516214 22.942996823612578 30 23.209156794968493 29.999624095977275 24.735085293107851 24.788522234611424 25.052748854137288 30 24.788522234611424 29.999960083983463 25.052748854137288 29.99999993839856 27.461853328763741 27.527871350232026 27.804006838009609 29.999999999999151 27.527871350232026 30 27.804006838009609 30 29.304732297784881 29.36246107424779 29.612276784869216 30 29.36246107424779 30 29.612276784869216 30 2.6714976314926373 3.3335201903380782 4.0345512107970869 4.7794771213450993 5.5741642174004227 6.4257395353536753 7.3429801876838647 8.3368656565609491 9.4213824336998115 10.614733406385486 11.941223908943275 13.434336673301203 15.142026490963776 17.136487036624647 19.533862351238213 22.539240649899526 26.569758732987545 30.000000000000004 2.9619180551082969 3.2497774570953184 3.5999605935286962 4.1254952043001607 4.6231246426962898 5.0232307905644058 5.7863900836629512 6.5249745304212112 7.5991094303978084 8.9172190844952421 10.462564457857926 11.820418438928881 29.999999999999943 3.816203080371019 3.8591201279504084 4.0842661672635021 29.999999999999996 3.8591201279504084 29.999999999999996 4.0842661672635021 30 4.2139389812252279 4.2832741750305159 4.5802404883913654 30 4.2832741750305159 30 4.5802404883913654 29.999999999999996 4.8190186620451101 4.8732506072205073 5.1853279488726489 30 4.8732506072205073 30 5.1853279488726489 30 5.4022718608259463 5.4498836170611797 5.6743661324892223 30 5.4498836170611797 29.999999999999996 5.6743661324892223 29.999999999999996 5.8795574925430003 5.9444335229854284 6.2335073014555213 29.999999999999996 5.9444335229854284 29.999999999999996 6.2335073014555213 29.999999999999996 6.8142958927320407 6.8649281695878237 7.0935120159864766 29.999999999999996 6.8649281695878237 29.999999999999996 7.0935120159864766 29.999999999999996 7.7561968736785403 7.8093534865768612 8.0720805507602318 30 7.8093534865768612 30 8.0720805507602318 30 9.2137984392461831 9.271837879683229 9.505236573928018 30 9.271837879683229 30 9.505236573928018 30 11.215829671245817 11.264611664228786 11.509807816133689 30 11.264611664228786 30 11.509807816133689 30 14.120994920992313 14.165977570576926 14.440508382738926 29.999999999999996 14.165977570576926 29.999999999999996 14.440508382738926 29.999999999999996 17.920356802651899 17.964157555481911 18.205656255126964 30 17.964157555481911 30 18.205656255126964 30 3.263958334942191 3.595740842918048 4.148882153516233 30.000000000000004 4.1658100602475026 4.2339433105686854 4.5297700609065403 30.000000000000004 4.2339433105686854 30.000000000000007 4.5297700609065403 30.000000000000004 5.3699240738494023 5.4237897305068268 5.6821995145173281 30.000000000000007 5.4237897305068268 30.000000000000004 5.6821995145173281 30.000000000000007 3.5785871964128404 3.8168071512968069 4.1022119759979638 4.394404918561607 4.6634053392005974 4.9940508199090079 5.3270233555011188 5.6337575670340136 5.9510232361710065 6.2984650690221953 6.5464954899636538 6.8418077585063619 7.2348236059707709 7.5752531564374905 8.1145419919294959 8.5284650024705986 9.1147671644192982 9.4550289178377724 9.8471324244705674 10.373231482692855 11.368413128552138 12.248732234268443 13.146800742199721 14.108113151120167 15.314046203198931 16.644776920673838 18.556626087081128 20.850544703167291 25.209680455173473 30 4.1031947637160702 4.1603662615242882 4.4655210313389535 30 4.1603662615242882 30.000000000000004 4.4655210313389535 30 4.4000948091203407 4.4426212072887825 4.6621857441103955 30 4.4426212072887825 30 4.6621857441103955 30 4.7045446207437811 4.7626292357730025 5.0477481862214537 30 4.7626292357730025 29.999999999999996 5.0477481862214537 30 4.9852841906795256 5.0272600673787409 5.2453005886850974 30 5.0275260919762861 30 5.2460975977238791 30 5.3309835173429985 5.3937170997923793 5.685080148487649 30 5.3937170997923793 30 5.685080148487649 30.000000000000004 5.6798445384246774 5.7351270738283775 5.9939700518043546 30 5.7351270738283775 29.999999999999996 5.9939700518043546 30 6.0018940402975733 6.0586727563022729 6.3568010886856827 30 6.0586727563022729 30 6.3568010886856827 30 6.3357189855675049 6.4085533961946508 6.7274947038591053 30 6.4085533961946508 30 6.7274947038591053 29.999999999999996 6.7021743853918574 6.751550115303826 6.9954048680881709 30 6.7552378374424578 30 7.0062941673499681 30 6.9643666818908123 7.022398462200405 7.2918040789131364 30 7.022398462200405 30 7.2918040789131364 30 7.2772091083052244 7.3374091205069156 7.6209057472193509 30 7.3374091205069156 30 7.6209057472193509 30 7.6947368256571718 7.7447194131474939 8.0156530985639858 30 7.7447194131474939 29.999999999999996 8.0156530985639858 30 8.0575477957476398 8.1204472862049357 8.4049445274576815 30 8.1233674585084952 30 8.4136099599213985 30 8.6346225116489244 8.6894449124496411 8.9581090319456145 30 8.6894449124496411 30 8.9581090319456145 30 9.0796190860727997 9.1410484359239206 9.4003206011934317 30.000000000000004 9.1410484359239206 30.000000000000004 9.4003206011934317 30.000000000000004 9.7132705002165061 9.7714471038360706 10.061180140253725 30 9.7714471038360706 30 10.061180140253725 30 10.082934601111017 10.133217486328558 10.3876429672362 30 10.133217486328558 30 10.3876429672362 30 10.51079776121319 10.555569960968461 10.806798542559102 30 10.555569960968461 30 10.806798542559102 30 11.088255204906002 11.14102758516662 11.387023581283536 30 11.14102758516662 30 11.387023581283536 30 12.192340013616999 12.253827761332396 12.528291293441272 30 12.253827761332396 30 12.528291293441272 30 13.183631868375661 13.259789707318868 13.628487425705135 30 13.259789707318868 30 13.628487425705135 30 14.211467836245589 14.274896351951691 14.553115608304534 30 14.274896351951691 30 14.553115608304534 30 15.333423910281535 15.379498844259318 15.639802988496969 30 15.379498844259318 30 15.639802988496969 30 16.779163673242646 16.844300205593754 17.114888044793062 30 16.844300205593754 30 17.114888044793062 30 18.436333475942043 18.488897716142418 18.812578697713807 30 18.488897716142418 30 18.812578697713807 30 20.971576569015191 21.035582855635646 21.349275347573691 30 21.035582855635646 30 21.349275347573691 30 24.38424315126603 24.42559697711593 24.666414734771365 30 24.42559697711593 30 24.666414734771365 30 3.9068997953628153 4.3003379552476551 4.7085916562771803 5.1881722384460573 5.8531229615639049 6.6792571793342814 8.0446734521193228 15.593781858549768 29.999999999993104 4.9735904742172536 5.0115614880732915 5.2210036855528106 29.999999999999996 5.0115614880732915 29.999999999999996 5.2210036855528106 30 5.4975430438149457 5.5673054235640498 5.8779237949288028 30 5.5673054235640498 30 5.8779237949288028 30 6.1431674514164936 6.2024505730204735 6.486220713579721 30 6.2024505730204735 30 6.486220713579721 30 7.1117454224595651 7.1893860813722945 7.5769793533751955 30 7.1893860813722945 29.999999999999996 7.5769793533751955 30 8.5026276589623766 8.5518386796170915 8.8356519965556775 29.999999999999993 8.5518386796170915 29.999999999999996 8.8356519965556775 29.999999999999993 11.984954669493778 12.04785405260243 12.357926867404645 29.999999999999996 12.04785405260243 30 12.357926867404645 29.999999999999993 4.2501407236202917 4.6678878712387224 29.999604558623489 4.6097324976566174 4.8625950442711661 5.2029738730730299 5.5193073094852281 5.8361577617255911 6.3790750055878354 6.7600839285488492 6.9698802849981716 7.2918936863662189 7.7624300337365781 8.2538204248552329 9.0372511936326134 10.060504906926708 10.972884225695175 12.246343130648388 14.774569064754875 30 5.3708703634214174 5.4263162191267416 5.7091601331027384 30.000000000000004 5.4263162191267416 30 5.7091601331027384 30.000000000000004 5.7502450221830808 5.808761022581737 6.114591898317526 30.000000000000004 5.808761022581737 30.000000000000007 6.114591898317526 30.000000000000007 6.1056621048889275 6.1631928248694683 6.4279467248340953 30 6.1631928248694683 30 6.4279467248340953 30 6.4646434139283668 6.5283817045012276 6.8063045607911477 30 6.5283817045012276 30 6.8063045607911477 30 7.0874444400823977 7.1323946650257435 7.3612741185890558 30.000000000000004 7.1323946650257435 30.000000000000004 7.3612741185890558 30.000000000000004 7.530993264278953 7.5806549345528564 7.8271540161371611 30 7.5806549345528564 30.000000000000004 7.8271540161371611 30.000000000000004 7.7777524248134888 7.8224408998988411 8.0715753911576194 30.000000000000004 7.8224408998988411 30.000000000000004 8.0715753911576194 30.000000000000004 8.1602973357036426 8.2381407027225091 8.5759944183559877 30.000000000000004 8.2381407027225091 30 8.5759944183559877 30.000000000000007 8.7283841581761319 8.7870374451851845 9.0932731669454689 30 8.7870374451851845 30 9.0932731669454689 30 9.3347249126841092 9.3894537897329631 9.6794731058497376 30 9.3894537897329631 30 9.6794731058497376 30 10.334452374834814 10.393449955497477 10.697979478957336 30 10.393449955497477 30 10.697979478957336 30 11.718905422911156 11.776117616091431 12.038384741992074 30.000000000000004 11.776117616091431 30.000000000000007 12.038384741992074 30 13.057175413430627 13.108917332760706 13.372336789475041 30 13.108917332760706 30 13.372336789475041 30 15.179426535768556 15.252540230934923 15.637430404078783 30 15.252540230934923 30 15.637430404078783 30 21.748116302070116 21.812325853624245 22.091412533213184 29.934905909528929 21.812325853624245 29.999873097929353 22.091412533213184 29.94631112731302 5.3847713697924844 5.9443075557879483 6.4565020992868263 7.1624359912787749 7.8072940352088853 8.9209459709375629 9.9220434461122231 11.000466770298372 12.512507158292749 14.553224208071903 30 6.5301858679574742 6.5900374638002335 6.8563707037665766 29.999999999999996 6.5900374638002335 29.999999999999996 6.8563707037665766 29.999999999999996 7.1129496961999985 7.1771463734190801 7.4518993860945573 30 7.1771463734190801 30 7.4518993860945573 30 7.9314532451953861 7.9918307003357683 8.2756129713010544 29.999999999999996 7.9918307003357683 29.999999999999996 8.2756129713010544 29.999999999999996 8.6975480910468725 8.7559074106058716 9.0153360562607183 29.999999999999996 8.7559074106058716 29.999999999999996 9.0153360562607183 29.999999999999996 10.073180233388184 10.129094915878929 10.418377703151728 30 10.129094915878929 30 10.418377703151728 30 11.385600730917888 11.43190199735136 11.69583493578066 30 11.43190199735136 30 11.69583493578066 30 12.914764291813441 12.972543773673742 13.270908156465385 29.999999999999996 12.972543773673742 29.999999999999996 13.270908156465385 29.999999999999996 15.385550620662192 15.43933335628094 15.700693684638763 30 15.43933335628094 30 15.700693684638763 30 20.149834634816024 20.203951042360181 20.493374281438953 30 20.203951042360181 30 20.493374281438953 30 6.2485695311953577 6.4834612206968307 6.9481504527124631 7.3313772513643682 7.6155634415163522 8.0409584418504938 8.483089596794958 9.1057835079092779 9.7270427030612456 10.220824888331048 10.63131792346908 11.444831656884919 12.235247826155643 12.791292344469358 13.869589707821181 14.922432309651432 16.031087441129038 17.290956421093242 19.094746213169941 21.078870348082546 24.290429575018095 30 6.9513385971359583 7.0079249604676352 7.2729392358179359 30 7.0079249604676352 30 7.2729392358179359 30 7.4479928221383691 7.4949947087843016 7.7484583903270163 30 7.4949947087843016 29.999999999999996 7.7484583903270163 30 7.85927789439158 7.9141007914618298 8.1794493995768871 30 7.9141007914618298 30 8.1794493995768871 30 8.1653220316836599 8.2410047551350019 8.5682506408207537 30 8.2410047551350019 30.000000000000004 8.5682506408207537 30 8.6252082246724679 8.6836825201391417 8.9802292916077953 30 8.6836825201391417 30 8.9802292916077953 30 9.1055825394076741 9.1689555481372 9.454026656825075 30 9.1689555481372 30 9.454026656825075 30 9.7866249154781713 9.8466041452373858 10.132113171246479 30 9.8466041452373858 30 10.132113171246479 30 10.471832764521121 10.524225893562555 10.759192322542365 30 10.524225893562555 30 10.759192322542365 30 11.020938477345572 11.077410587089705 11.338906647222329 30 11.077410587089705 29.999999999999996 11.338906647222329 30 11.480724639695291 11.524452281255471 11.735830125071308 30 11.524452281255471 30.000000000000004 11.735830125071308 30 12.401698947652051 12.457095228894039 12.738314017778366 30 12.457095228894039 30 12.738314017778366 30 13.310521608728624 13.363437057898956 13.628105522622752 30 13.363437057898956 30 13.628105522622752 30 13.959257938743807 14.024733158129969 14.322114549487988 30 14.024733158129969 30 14.322114549487988 30 15.242986405677375 15.297265029527777 15.546647298426006 30 15.297265029527777 30 15.546647298426006 30 16.535272449721255 16.605510680381499 16.896204778985183 30 16.605510680381499 30 16.896204778985183 30 17.9476259216964 18.008074986272145 18.288567820678793 30 18.008074986272145 30.000000000000004 18.288567820678793 30 19.634694382637015 19.711779883503649 20.08579430646428 30 19.711779883503649 30 20.08579430646428 30 22.2621471873506 22.315575021257761 22.577126418654249 29.974645680132859 22.315575021257761 30 22.577126418654249 30 25.612396207978499 25.667611403917576 25.937419527256239 30.000000000000004 25.667611403917576 29.999992391953974 25.937419527256239 29.999999999878405 6.72059823187496 7.0780719176459002 7.444605099871942 7.7764129988767436 8.1564333609944057 8.8362326868123588 9.7880454168204256 30 7.8659596893505768 7.917688604220201 8.1615634340737202 30 7.917688604220201 30 8.1615634340737202 29.999999999999996 7.8659596893505768 7.9182281920358761 8.1626164650502009 30 7.9182281920358761 29.999999999999996 8.1626164650502009 30 8.3872743404183652 8.4257222343014604 8.6321552254833271 30 8.4257222343014604 30 8.6321552254833271 30 8.8917989944220963 8.9565023541327697 9.2106483868255946 30 8.9565023541327697 30 9.2106483868255946 30 9.521146625806356 9.570346496058022 9.8097347525533092 30 9.570346496058022 30 9.8097347525533092 30 10.868285417283113 10.923522016808057 11.190843205289497 30 10.923522016808057 30 11.190843205289497 30.000000000000004 14.149312375706149 14.211956837790252 14.48977782604633 30.000000000000004 14.211956837790252 30.000000000000004 14.48977782604633 30.000000000000004 7.2241181151754326 7.4330760468899539 7.8727564357312225 8.0888502449550206 8.3215566399458663 8.5581612634509678 8.8747833355308465 9.2226584500523465 9.5526516736236733 9.8802923192355578 10.23293582241444 10.541335880216065 10.805069273241642 11.108780467414784 11.450588116168493 11.785584829149526 12.218666585845366 12.659272246276739 13.076449308709956 13.506939280105328 13.910810571272165 14.331438675320381 14.78438403720455 15.215150411936172 15.758077360783448 16.118515254999508 16.554468538622963 17.27616550262092 17.884635598216512 18.468538068344678 19.085740770427595 19.47958749457629 20.11832809599753 20.699952974159146 21.60924444922297 22.250098562554768 22.94947348495544 23.578333343908998 24.047361540853821 24.979445661212573 25.732053930085634 26.399425295847927 27.411720610533322 28.332741131298786 29.497698194977442 30 7.598831561332557 7.6557776521406957 7.9314185174019416 29.999999999999996 7.6557776521406957 29.999999999999996 7.9314185174019416 29.999999999999996 8.0426743842459807 8.1009234840601696 8.3833862393516974 30 8.1009234840601696 30 8.3833862393516974 30 8.2608522772270057 8.3107350728870006 8.6213258515515285 30 8.3107350728870006 30 8.6213258515515285 30 8.4958317075763823 8.5542702359704972 8.84066931198827 30.000000000000004 8.5542702359704972 30.000000000000007 8.84066931198827 30 8.7347783964305492 8.7887481109861429 9.0358623201873733 29.999999999999996 8.7887481109861429 29.999999999999993 9.0358623201873733 29.999999999999996 9.0545841634408948 9.1216401831938185 9.4094624463777539 30 9.1216401831938185 30.000000000000004 9.4094624463777539 30 9.4060237745255773 9.4732015742521352 9.8064851679569678 30 9.4732015742521352 30 9.8064851679569678 30 9.7394638988918061 9.7953671343538034 10.053547116240855 30 9.7953671343538034 30 10.053547116240855 30 10.070591315540097 10.114594480225252 10.33984863034236 30 10.114594480225252 30 10.33984863034236 30 10.427060821276037 10.493020596359752 10.786497280416977 30 10.493020596359752 30 10.786497280416977 30 10.738870211750852 10.797602469871761 11.089076874184459 30 10.797602469871761 30 11.089076874184459 30 11.005566875773376 11.072796152050655 11.415703490229815 30 11.072796152050655 30 11.415703490229815 30 11.312745954788975 11.369271550972416 11.65640436416472 30 11.369271550972416 30 11.65640436416472 30 11.658528698800822 11.729864353135339 12.050615225358802 30 11.729864353135339 30 12.050615225358802 30 11.997496907440542 12.046987598582682 12.310489162215164 30 12.046987598582682 30 12.310489162215164 30 12.435826304307493 12.484504728695033 12.746974098637116 30 12.484504728695033 30 12.746974098637116 30 12.881904981056513 12.955090508002973 13.268257402022552 30 12.955090508002973 30 13.268257402022552 29.999999999999996 13.30439192638222 13.370052559189462 13.631892202763428 30 13.373503130248547 29.999999999999996 13.642101167031848 30 13.740494904764498 13.792293276429463 14.049617692720965 30 13.792293276429463 30 14.049617692720965 30 14.149758575195165 14.206472253068243 14.472363330078037 30 14.206472253068243 30 14.472363330078037 30 14.576136100424053 14.627861799405 14.908103649809359 30 14.627861799405 30 14.908103649809359 30 15.035428495744583 15.091671143899802 15.349954967536165 30 15.091671143899802 30 15.349954967536165 30 15.472384891712407 15.532280998203095 15.798162981367705 30 15.532280998203095 30 15.798162981367705 30 16.02333308721748 16.083782068375438 16.351357373490593 30 16.083782068375438 30 16.351357373490593 30 16.389234836407912 16.433489655156212 16.637343949906569 30 16.433489655156212 30 16.637343949906569 30 16.831948486268615 16.883659176215627 17.122900503317855 30 16.883659176215627 30 17.122900503317855 30 17.565212984287143 17.60168477580574 17.837534258483824 30 17.60168477580574 30 17.837534258483824 30 18.183812804121295 18.273949146212111 18.623007656831895 29.999999999999996 18.273949146212111 29.999999999999993 18.623007656831895 29.999999999999993 18.777772536534531 18.834147015876688 19.055073673955754 30 18.834147015876688 29.999999999999996 19.055073673955754 30 19.40597718209365 19.460230565729802 19.716870597593424 30 19.460230565729802 30.000000000000004 19.716870597593424 30 19.807050010853231 19.870251432054683 20.152485592271972 30 19.870251432054683 30 20.152485592271972 30 20.457861517750551 20.52601054879246 20.785230778110442 30 20.52601054879246 30 20.785230778110442 30 21.050868384986376 21.120894054027531 21.443141141129821 30 21.120894054027531 30.000000000000004 21.443141141129821 30.00000