# vtk DataFile Version 5.1
vtk output
ASCII
DATASET UNSTRUCTURED_GRID
POINTS 474 double
0 0 -3 -0.11344901018 0.17758382911 -3.1345113591 -0.25315847539 0.33878440002 -3.2648786912 
-0.38126193464 0.50363826191 -3.4024021726 -0.5126230829 0.66576812132 -3.5400907975 -0.65843420624 0.83063257984 -3.6586607204 
-0.82297351213 0.96639713451 -3.7890248355 -0.97532665543 1.1205572503 -3.9136168835 -1.1248934303 1.2712178784 -4.0456439831 
-1.260480867 1.4416481412 -4.1684021702 -1.3678821889 1.6074581306 -4.3216079256 -1.4660695894 1.784059061 -4.4688198332 
-1.5694943891 1.9404801104 -4.6341551474 -1.6843141616 2.0801145574 -4.8068358964 -1.7920938126 2.214324268 -4.9881403376 
-1.8953148049 2.3800598251 -5.1442721788 -1.9325266326 2.5204028889 -5.3477890193 -1.973129178 2.6634701459 -5.548744719 
-1.9865147688 2.7616205381 -5.7782819197 -2.0072616269 2.8605132642 -6.0069515429 -2.0326142165 2.9638917436 -6.2331597129 
-1.9920842053 3.0592208557 -6.4606892244 -1.9658829099 3.1812169213 -6.6773235986 -1.95489032 3.3115244098 -6.8903942944 
-1.9618163346 3.4463146723 -7.10083102 -1.9595558315 3.5807523934 -7.3115948434 -1.9591600912 3.7034011527 -7.5294414069 
-1.9922335507 3.8261433401 -7.744709848 -2.0235998482 3.9580476516 -7.9547512915 -2.053410198 4.0821397433 -8.16972221 
-2.0922570198 4.2101350542 -8.380928566 -2.0673262565 4.3390293584 -8.5936836256 -2.0611579752 4.4358891617 -8.8240748816 
-2.0457609566 4.5389463916 -9.0513239502 -2.0376118219 4.6474567449 -9.2763997037 -2.0620327306 4.7344755807 -9.5094905474 
-2.0678249667 4.7919692102 -9.7527207523 -2.0538188065 4.7894724803 -10.002315612 -2.061454029 4.7954964511 -10.25212637 
-2.0748719743 4.7792135014 -10.501234428 -2.0879807121 4.7450832286 -10.748546549 -2.1011430636 4.7103243177 -10.995768253 
-2.1002295418 4.7008537725 -11.245587136 -2.1048346881 4.6894878057 -11.495286169 -2.0641472069 4.6880886783 -11.741949039 
-2.0210511199 4.6768675797 -11.987950694 -1.9835084387 4.6483785121 -12.233468351 -1.9506827239 4.6230643942 -12.480007736 
-1.9004712217 4.6381689642 -12.724447211 -1.8375331244 4.6537107888 -12.96589544 -1.7745908329 4.6759472614 -13.206818265 
-1.7324654219 4.637703043 -13.450257845 -1.6671038275 4.5609504363 -13.679030438 -1.598399743 4.4811403079 -13.905768376 
-1.5362405788 4.3949975328 -14.132077148 -1.4802902991 4.3079524624 -14.359657292 -1.4132617365 4.2082396067 -14.578893508 
-1.3346237404 4.1025622853 -14.791374964 -1.2639046148 4.0215870271 -15.017077895 -1.1811068059 3.9440623254 -15.239865784 
-1.0986307142 3.8389919159 -15.45118995 -0.9637992344 3.7108445705 -15.618219079 -0.83607035007 3.5887696699 -15.795089231 
-0.67316557472 3.4694079904 -15.942448736 -0.49469270494 3.3540019539 -16.074087946 -0.32610371771 3.2396122859 -16.218976721 
-0.14820477506 3.1356714575 -16.360568636 0.012364935668 3.0233302117 -16.515800116 0.1549159304 2.9000749565 -16.680078405 
0.27000396814 2.7652117596 -16.856335778 0.3829086188 2.6314831379 -17.034855232 0.49747072388 2.4976228367 -17.212216287 
0.60083379182 2.4004242314 -17.418052405 0.66797056282 2.2936634265 -17.633910656 0.75017747883 2.1834571348 -17.842708636 
0.82913521304 2.0737203209 -18.053002496 0.84139766799 2.0604437881 -18.08156333 -0.5126230829 0.66576812132 -3.5400907975 
-0.52277406038 0.77956108233 -3.7624601292 -0.53449030145 0.89788545023 -3.982373916 -0.53515452505 1.0082199251 -4.2067081811 
-0.53644590475 1.1144897642 -4.4329935178 -0.53696454607 1.2507070137 -4.6426231721 -0.51878168185 1.3625180934 -4.8654856093 
-0.50273855675 1.4613674127 -5.0945520412 -0.49082816941 1.5488159746 -5.328455636 -0.53649707025 1.6336061495 -5.5591610277 
-0.58531137867 1.7180366746 -5.7893536638 -0.67092791921 1.7968155302 -6.0106310912 -0.74962718774 1.8695191762 -6.2365085027 
-0.83361798078 1.9305568324 -6.4639287111 -0.91700232593 1.9931029055 -6.6911621587 -0.9753928223 2.0369035191 -6.930268947 
-1.0475750197 2.0677300162 -7.1676282894 -1.1009443958 2.0963864931 -7.4101783173 -1.0913733021 2.1254249614 -7.6583015962 
-1.0949643175 2.1422303757 -7.9077102622 -1.0664266342 2.165504346 -8.1548653099 -1.1248934303 1.2712178784 -4.0456439831 
-1.3701105494 1.2938911888 -4.0025802454 -1.6157087444 1.3095406912 -3.9585732041 -1.8617989566 1.2971902892 -3.9162993943 
-2.1048102068 1.2871864009 -3.8584594899 -2.3536918581 1.2700404026 -3.8422133105 -2.6027259385 1.2509731012 -3.853097466 
-2.8484396668 1.2518422052 -3.8991844311 -3.0916583036 1.2465957369 -3.9567793032 -3.3338077351 1.2274596438 -4.0159186538 
-3.5641759617 1.2403219499 -4.1121737381 -3.7912733809 1.2235452575 -4.2153498243 -4.0204382622 1.2355273717 -4.3145460244 
-4.2478450942 1.2493184055 -4.4174826076 -4.4834828557 1.2739945955 -4.4972693924 -4.7217834282 1.3027450896 -4.567171082 
-4.9607669071 1.3311838138 -4.6348330046 -5.199558466 1.3700473821 -4.6978267701 -5.4302756926 1.4046385181 -4.7876767264 
-5.6506628044 1.4263130494 -4.9036928272 -5.8669179291 1.4821841882 -5.0156676629 -1.5694943891 1.9404801104 -4.6341551474 
-1.4895185985 2.1771164887 -4.6238063594 -1.381831314 2.3982210442 -4.5789039731 -1.2633369749 2.613011121 -4.5306928281 
-1.1462127147 2.8284302862 -4.4819435621 -1.0110186488 3.0229077887 -4.4019369025 -0.87475765502 3.2163027526 -4.3211202613 
-0.70885179817 3.3900448113 -4.2519180669 -0.54644443097 3.5633239055 -4.1738270778 -0.35505468441 3.7110359584 -4.1101787129 
-0.1483501848 3.8487343787 -4.0816761715 0.067808343634 3.9732436541 -4.0651555501 0.28749992486 4.0913120878 -4.0479667714 
0.50374755256 4.2143802933 -4.0236525716 0.73000447932 4.3146703998 -3.988301509 0.94938943915 4.4138568734 -3.9209792775 
1.1649049221 4.5245782177 -3.8593849555 1.3613181123 4.6701551205 -3.8071429788 1.5518888171 4.8233410947 -3.7550194358 
1.7445140987 4.9527028979 -3.6619548088 1.9520510821 5.0706612644 -3.5883375689 -1.9325266326 2.5204028889 -5.3477890193 
-2.0959306286 2.7087500879 -5.365801979 -2.2633102792 2.8933902522 -5.385602541 -2.4178782198 3.0885612485 -5.4083409222 
-2.5479432722 3.3001525355 -5.43684021 -2.6787178666 3.5102060499 -5.4725547247 -2.8107433098 3.7194501556 -5.5084181681 
-2.9413858908 3.9308341965 -5.5357915725 -3.0679742596 4.1429310387 -5.574396163 -3.2382620752 4.3194711085 -5.6227248669 
-3.4034421657 4.4981947511 -5.679938478 -3.5627383883 4.6713598955 -5.7644283958 -3.7260812147 4.8202216789 -5.8813013633 
-3.8851823596 4.9781299918 -5.9919891692 -4.0318882388 5.1192579924 -6.1371107474 -4.1776034972 5.267674107 -6.2758180666 
-4.3006385034 5.4063912843 -6.4435080543 -4.3993083167 5.5617470301 -6.612708705 -4.4888422999 5.7516090069 -6.7484882896 
-4.5691850661 5.9608949852 -6.8591427934 -4.6250139927 6.1476728782 -7.0152628647 -2.0326142165 2.9638917436 -6.2331597129 
-1.8379661322 2.9856981232 -6.3885193121 -1.6391598511 3.01010672 -6.5381197233 -1.4501474801 3.0433683747 -6.6983320385 
-1.259729815 3.1333976635 -6.8330014113 -1.0836211307 3.1947706356 -6.9994919203 -0.90834424086 3.2595978692 -7.1655504693 
-0.7571583047 3.3005064676 -7.3604075946 -0.60996519126 3.3440873206 -7.5577268704 -0.49002972453 3.3894289805 -7.7723419158 
-0.36913794691 3.4240836293 -7.988407261 -0.25986560906 3.4360709529 -8.212942025 -0.15574965957 3.4430170546 -8.4401239362 
-0.037148734201 3.3980559853 -8.65555913 0.11474077309 3.3523152081 -8.8487879034 0.25761539666 3.307527632 -9.0489900887 
0.37134473956 3.3170620605 -9.2714192487 0.45184428968 3.4066055838 -9.4905123337 0.52755006512 3.4859579188 -9.7151717258 
0.61963079677 3.5558990082 -9.9368232155 0.71155600796 3.6256716727 -10.158220968 -1.9618163346 3.4463146723 -7.10083102 
-2.0309726592 3.3358535308 -7.3141751996 -2.104616748 3.2322445112 -7.5294464686 -2.190188981 3.1546980797 -7.751175907 
-2.2976904794 3.0825969981 -7.9650563921 -2.3991063146 3.0081621014 -8.1810986901 -2.5152911443 2.932724715 -8.3892099249 
-2.6353777226 2.9151416721 -8.607773532 -2.7375207027 2.9036163259 -8.8356638083 -2.8064497636 2.8770738805 -9.0745032588 
-2.8451554793 2.8922226211 -9.3210238122 -2.8645235536 2.9469414014 -9.5641919285 -2.8916055665 2.9711691852 -9.8115369892 
-2.9352780296 2.950425028 -10.056817229 -2.9962578971 2.9862888521 -10.296598883 -3.0614373976 3.0026472426 -10.537397629 
-3.1480640416 3.0173237865 -10.77144981 -3.2331271899 3.0370317538 -11.005705774 -3.288509663 3.025893663 -11.249239601 
-3.320897827 3.0297427036 -11.497102853 -3.3208786737 3.0038642036 -11.745309351 -2.0235998482 3.9580476516 -7.9547512915 
-1.8641792939 4.1284428016 -8.0444763141 -1.703088157 4.2983186837 -8.1321793946 -1.5312487767 4.4435719007 -8.2411414537 
-1.3581433132 4.5892239683 -8.3475368188 -1.1862146091 4.7158958043 -8.4775166889 -1.0186464144 4.8089534404 -8.6380195752 
-0.86800983641 4.8930373924 -8.8189574385 -0.72884017182 4.9763139347 -9.0092120626 -0.59088419752 5.0655988889 -9.1976168027 
-0.45467165021 5.1541236562 -9.3876418208 -0.32760832179 5.2513809607 -9.5797249468 -0.20178605879 5.3528466093 -9.770443274 
-0.086646172337 5.4573309696 -9.9662131005 0.03316044533 5.5673355231 -10.15606929 0.1539268129 5.6761187869 -10.346021089 
0.26904779452 5.7614038547 -10.550895726 0.38126424888 5.8387279751 -10.76048687 0.52095386486 5.9122322598 -10.954352626 
0.65941290954 5.9812120167 -11.150747346 0.83217367741 6.082715558 -11.299200735 -2.0611579752 4.4358891617 -8.8240748816 
-2.2749039929 4.4474172946 -8.9532249573 -2.4981042812 4.4241463158 -9.0634070468 -2.7250734602 4.4038012478 -9.1662227557 
-2.9418091811 4.3703748547 -9.2862573487 -3.1667417949 4.3351481088 -9.3895259095 -3.3871943636 4.2952164277 -9.5004588882 
-3.6033343095 4.2456788972 -9.6159125883 -3.8152564157 4.1965541869 -9.7391026194 -4.0309626123 4.1245192607 -9.8429380958 
-4.2473437712 4.0832631956 -9.9611630135 -4.4655861722 4.0789046166 -10.083028748 -4.6819146229 4.0739012266 -10.208236445 
-4.9124821926 4.0776730423 -10.304799219 -5.1348570088 4.0688567566 -10.418692652 -5.3596202142 4.1049321565 -10.522037062 
-5.5862765909 4.142723188 -10.620519166 -5.7895427036 4.1595617969 -10.765085236 -6.004783917 4.1509833593 -10.891961674 
-6.197132081 4.1403738695 -11.051302888 -6.3795882388 4.1283201504 -11.220463394 -2.0678249667 4.7919692102 -9.7527207523 
-2.1441428776 5.013509272 -9.8398733627 -2.2796994997 5.2096165779 -9.9151483705 -2.3825810196 5.4187608921 -10.005558816 
-2.4745767344 5.6301086572 -10.102351949 -2.5500110526 5.8419983502 -10.21149599 -2.626657656 6.0537282849 -10.320104153 
-2.7167965175 6.2428511845 -10.456513516 -2.7820316499 6.4348532417 -10.60273112 -2.8506253588 6.6166469095 -10.760039624 
-2.9089838838 6.7902119051 -10.930243839 -2.9545583514 6.9656974385 -11.102371104 -3.0034645359 7.1408415507 -11.273930788 
-3.0501810168 7.2922434738 -11.467308729 -3.0966665523 7.4433924841 -11.660940007 -3.1677964347 7.5793875126 -11.858287142 
-3.2650469659 7.703853777 -12.052066613 -3.3649163546 7.8273718435 -12.245119436 -3.4830234516 7.9284399105 -12.440915145 
-3.5999295082 8.0331131638 -12.635533962 -3.7010834527 8.127341509 -12.842220123 -2.0879807121 4.7450832286 -10.748546549 
-1.8991863684 4.7086086332 -10.90831607 -1.6811418825 4.7022357376 -11.030447099 -1.4633424904 4.6918795944 -11.152742541 
-1.23557263 4.6995726538 -11.25551271 -1.0089541506 4.6897555132 -11.360620695 -0.77516611581 4.7000760149 -11.448578878 
-0.53781110516 4.7074309436 -11.526735797 -0.31226130272 4.6902125765 -11.633182095 -0.087467207651 4.6716851348 -11.740998369 
0.13860298592 4.6638690157 -11.847446365 0.36274592929 4.6396524132 -11.955490324 0.58600088174 4.6070328999 -12.063162017 
0.80515872679 4.5803609166 -12.180458412 1.0200580255 4.546581759 -12.303654434 1.2421798189 4.5341117092 -12.417700069 
1.4494465315 4.560245829 -12.555022746 1.6366077656 4.5252269867 -12.717023836 1.8251344419 4.4891279399 -12.877194217 
2.015089791 4.4891576176 -13.039727182 2.1935604018 4.4748114965 -13.211188556 -2.0641472069 4.6880886783 -11.741949039 
-1.8958401596 4.5348512415 -11.845346456 -1.7487832117 4.3755161884 -11.969791604 -1.6033642497 4.2170003107 -12.097173086 
-1.4544175712 4.0566422611 -12.218004303 -1.3136413338 3.9086417323 -12.362149696 -1.1605324749 3.7740530306 -12.506868592 
-1.0061606307 3.6507165967 -12.660026869 -0.84534460711 3.5466279831 -12.820662379 -0.68148008115 3.4450555843 -12.979820994 
-0.50410515087 3.3514735809 -13.129087678 -0.32616686138 3.2587236297 -13.278203108 -0.16276929705 3.1777273829 -13.449202652 
-0.0093445891378 3.0970236355 -13.629335282 0.13338518242 3.0859156168 -13.834286066 0.26053452067 3.0999668267 -14.04907808 
0.37626079719 3.1195648925 -14.269811732 0.48721812856 3.1331459422 -14.493427531 0.58404931741 3.1264307346 -14.723815523 
0.68482795631 3.1162922265 -14.952378155 0.77655315177 3.0632066002 -15.174980198 -1.9004712217 4.6381689642 -12.724447211 
-2.0695264038 4.6685961388 -12.906091182 -2.2590820583 4.6897853646 -13.067706994 -2.4697839737 4.7162417098 -13.199634113 
-2.6870090419 4.7380145437 -13.321450423 -2.9029259552 4.7420523566 -13.447401138 -3.1182321035 4.7841565291 -13.567278163 
-3.3326392392 4.836367008 -13.684767082 -3.5506191613 4.8889143012 -13.795327181 -3.7699111082 4.9457942852 -13.901042409 
-3.9843038752 5.0206260757 -14.005617476 -4.1990858313 5.0953444032 -14.109472581 -4.4117021555 5.1593638448 -14.224345597 
-4.6313328153 5.2247677268 -14.324269095 -4.850004452 5.2833309872 -14.430349536 -5.0668964969 5.351103443 -14.534583576 
-5.2841477623 5.3928360841 -14.651032167 -5.5012527845 5.4563059079 -14.757507473 -5.708771993 5.5692816184 -14.839191418 
-5.9243421484 5.6636459224 -14.923600459 -6.1291983997 5.7495923248 -15.024201402 -1.6671038275 4.5609504363 -13.679030438 
-1.8338507663 4.5100500047 -13.858208016 -1.9911376023 4.4812092603 -14.050377376 -2.1421997716 4.4445848783 -14.246180531 
-2.2710458449 4.3773714936 -14.449603859 -2.3773658633 4.2881910747 -14.657553147 -2.4648357363 4.1824999493 -14.866546945 
-2.5304318806 4.1083560522 -15.096111377 -2.5956482583 4.0736667691 -15.334949141 -2.6767217302 4.039345925 -15.568934551 
-2.7644263621 4.0035581422 -15.800293864 -2.8548781677 3.9699382442 -16.030919477 -2.95158656 3.9078830343 -16.252947939 
-3.0417093738 3.8511073482 -16.479121324 -3.1548476446 3.7999914666 -16.696116481 -3.2387771451 3.7740019619 -16.930168579 
-3.3178920306 3.7353478372 -17.164148693 -3.4032587774 3.7037705613 -17.396990687 -3.4884975376 3.6737189232 -17.63008134 
-3.5728176942 3.6430360338 -17.863423731 -3.6456910638 3.564427762 -18.075969598 -1.4132617365 4.2082396067 -14.578893508 
-1.3555649042 3.9674745741 -14.613581757 -1.3152326084 3.7344299192 -14.694597155 -1.2787067631 3.5093617414 -14.797116314 
-1.2045305925 3.2904650429 -14.89241653 -1.0915394875 3.0834731614 -14.975406717 -0.9753550814 2.8870661792 -15.077511962 
-0.88653412659 2.6876756027 -15.199389918 -0.80087889709 2.4885146219 -15.323881224 -0.71452839261 2.300588247 -15.464335017 
-0.65384051258 2.1076011113 -15.611212335 -0.59575459658 1.9155287825 -15.76032386 -0.53878183424 1.7163617807 -15.90027603 
-0.46791143553 1.5132960384 -16.027718923 -0.39673625638 1.3121872076 -16.158062055 -0.3144254636 1.1155670845 -16.288696891 
-0.22073131295 0.92099737135 -16.414649394 -0.10714864847 0.72433331472 -16.519158853 -0.00049572760366 0.54162588661 -16.65236227 
0.097277640553 0.34949597457 -16.778957947 0.18173120641 0.17662640795 -16.892345513 -1.0986307142 3.8389919159 -15.45118995 
-0.85461499924 3.8070771379 -15.495210148 -0.60486569078 3.8088703081 -15.484161733 -0.35623644882 3.82768807 -15.466012577 
-0.10724982246 3.8425573552 -15.449143544 0.14064899175 3.8640033536 -15.424931005 0.38602735858 3.9109152595 -15.415511335 
0.63341681735 3.9468554012 -15.412910968 0.87924630552 3.9880604888 -15.432146443 1.1279276464 3.9899886425 -15.457717383 
1.3745705737 4.0303442489 -15.451497138 1.6126990811 4.1050939223 -15.465895064 1.845244585 4.1926770998 -15.493313591 
2.0830281205 4.2449887332 -15.550080512 2.3289738014 4.2807839891 -15.57708832 2.5694591924 4.3239159973 -15.630063848 
2.8036778255 4.377826461 -15.698877319 3.0478088772 4.4316602814 -15.700273522 3.2728920387 4.5404592759 -15.700864478 
3.5067185492 4.628682161 -15.694392577 3.670994616 4.6920137772 -15.713559239 -0.49469270494 3.3540019539 -16.074087946 
-0.25500400264 3.4249702416 -16.070506308 -0.018242187468 3.4886653153 -16.021651621 0.21842746092 3.5508434717 -15.970452457 
0.46032055058 3.6023276989 -15.933885976 0.69142477551 3.6972761223 -15.925189188 0.91373890878 3.8091614935 -15.901565262 
1.136347568 3.9197664088 -15.874883104 1.361270788 4.0188773926 -15.829204247 1.6029813722 4.0698067647 -15.790704994 
1.8306511433 4.1730076666 -15.794711141 2.0737599441 4.2264221422 -15.818056477 2.3160773951 4.2758903604 -15.854596159 
2.5615381351 4.3157395459 -15.880307392 2.7924570138 4.411412776 -15.885114107 3.0179595148 4.5185928188 -15.897805067 
3.2284695131 4.6526937827 -15.912034338 3.4366263538 4.7892529711 -15.934888609 3.6438922967 4.9275224643 -15.955440401 
3.8221501591 5.050426985 -15.99414053 0.1549159304 2.9000749565 -16.680078405 0.17357183321 2.6704121815 -16.777067925 
0.1905555832 2.441125138 -16.875246354 0.24342733331 2.2155422532 -16.969144917 0.27337796596 1.9952272271 -17.083443862 
0.36486696484 1.8191323837 -17.235497699 0.44817415675 1.6340515426 -17.381460002 0.52084246071 1.4439115295 -17.526601633 
0.59044283513 1.2411799209 -17.655270521 0.63493371826 1.0320774083 -17.784872607 0.68464106554 0.83234752774 -17.926778049 
0.72804121661 0.65922678016 -18.101836992 0.73453790689 0.60632846221 -18.173289013 0 0 -3 
0 0 -2.75 0 0 -2.5 0 0 -2.25 
0 0 -2 0 0 -1.75 0 0 -1.5 
0 0 -1.25 0 0 -1 0 0 -0.75 
0 0 -0.5 0 0 -0.25 0 0 0 
0 0 0.25 0 0 0.5 0 0 0.75 
0 0 1 0 0 1.25 0 0 1.5 
0 0 1.75 0 0 2 0 0 2.25 
0 0 2.5 0 0 2.75 0 0 3 
0 0 3.25 0 0 3.5 0 0 3.75 
0 0 4 0 0 4.25 0 0 4.5 
0 0 4.75 0 0 5 0 0 5.25 
0 0 5.5 0 0 5.75 0 0 6 
0 0 6.25 0 0 6.5 0 0 6.75 
0 0 6.7704237622 0 0 0.5 0.80901699437 -9.9076007262e-17 1.0877852523 
0 0 2.5 -0.80901699437 1.9815201452e-16 3.0877852523 0 0 4.5 
0.80901699437 -2.9722802179e-16 5.0877852523 0 0 6.5 -0.80901699437 3.9630402905e-16 7.0877852523 

CELLS 452 924
OFFSETS vtktypeint64
0 3 5 7 10 12 14 16 19 
21 23 25 28 30 32 34 37 39 
41 43 46 48 50 52 55 57 59 
61 64 66 68 70 73 75 77 79 
82 84 86 88 91 93 95 97 100 
102 104 106 109 111 113 115 118 120 
122 124 127 129 131 133 136 138 140 
142 145 147 149 151 154 156 158 160 
162 164 166 168 170 172 174 176 178 
180 182 184 186 188 190 192 194 196 
198 200 202 204 206 208 210 212 214 
216 218 220 222 224 226 228 230 232 
234 236 238 240 242 244 246 248 250 
252 254 256 258 260 262 264 266 268 
270 272 274 276 278 280 282 284 286 
288 290 292 294 296 298 300 302 304 
306 308 310 312 314 316 318 320 322 
324 326 328 330 332 334 336 338 340 
342 344 346 348 350 352 354 356 358 
360 362 364 366 368 370 372 374 376 
378 380 382 384 386 388 390 392 394 
396 398 400 402 404 406 408 410 412 
414 416 418 420 422 424 426 428 430 
432 434 436 438 440 442 444 446 448 
450 452 454 456 458 460 462 464 466 
468 470 472 474 476 478 480 482 484 
486 488 490 492 494 496 498 500 502 
504 506 508 510 512 514 516 518 520 
522 524 526 528 530 532 534 536 538 
540 542 544 546 548 550 552 554 556 
558 560 562 564 566 568 570 572 574 
576 578 580 582 584 586 588 590 592 
594 596 598 600 602 604 606 608 610 
612 614 616 618 620 622 624 626 628 
630 632 634 636 638 640 642 644 646 
648 650 652 654 656 658 660 662 664 
666 668 670 672 674 676 678 680 682 
684 686 688 690 692 694 696 698 700 
702 704 706 708 710 712 714 716 718 
720 722 724 726 728 730 732 734 736 
738 740 742 744 746 748 750 752 754 
756 758 760 762 764 766 768 770 772 
774 776 778 780 782 784 786 788 790 
792 794 796 798 800 802 804 806 808 
810 812 814 816 818 820 822 824 826 
828 830 832 834 836 838 840 842 844 
846 848 850 852 854 856 858 860 863 
865 867 869 871 873 875 877 880 882 
884 886 888 890 892 894 897 899 901 
903 905 907 909 911 914 916 918 920 
922 924 
CONNECTIVITY vtktypeint64
425 1 0 2 1 3 2 77 4 
3 5 4 6 5 7 6 98 8 
7 9 8 10 9 11 10 119 12 
11 13 12 14 13 15 14 140 16 
15 17 16 18 17 19 18 161 20 
19 21 20 22 21 23 22 182 24 
23 25 24 26 25 27 26 203 28 
27 29 28 30 29 31 30 224 32 
31 33 32 34 33 35 34 245 36 
35 37 36 38 37 39 38 266 40 
39 41 40 42 41 43 42 287 44 
43 45 44 46 45 47 46 308 48 
47 49 48 50 49 51 50 329 52 
51 53 52 54 53 55 54 350 56 
55 57 56 58 57 59 58 371 60 
59 61 60 62 61 63 62 392 64 
63 65 64 66 65 67 66 412 68 
67 69 68 70 69 71 70 72 71 
73 72 74 73 75 74 76 75 78 
77 79 78 80 79 81 80 82 81 
83 82 84 83 85 84 86 85 87 
86 88 87 89 88 90 89 91 90 
92 91 93 92 94 93 95 94 96 
95 97 96 99 98 100 99 101 100 
102 101 103 102 104 103 105 104 106 
105 107 106 108 107 109 108 110 109 
111 110 112 111 113 112 114 113 115 
114 116 115 117 116 118 117 120 119 
121 120 122 121 123 122 124 123 125 
124 126 125 127 126 128 127 129 128 
130 129 131 130 132 131 133 132 134 
133 135 134 136 135 137 136 138 137 
139 138 141 140 142 141 143 142 144 
143 145 144 146 145 147 146 148 147 
149 148 150 149 151 150 152 151 153 
152 154 153 155 154 156 155 157 156 
158 157 159 158 160 159 162 161 163 
162 164 163 165 164 166 165 167 166 
168 167 169 168 170 169 171 170 172 
171 173 172 174 173 175 174 176 175 
177 176 178 177 179 178 180 179 181 
180 183 182 184 183 185 184 186 185 
187 186 188 187 189 188 190 189 191 
190 192 191 193 192 194 193 195 194 
196 195 197 196 198 197 199 198 200 
199 201 200 202 201 204 203 205 204 
206 205 207 206 208 207 209 208 210 
209 211 210 212 211 213 212 214 213 
215 214 216 215 217 216 218 217 219 
218 220 219 221 220 222 221 223 222 
225 224 226 225 227 226 228 227 229 
228 230 229 231 230 232 231 233 232 
234 233 235 234 236 235 237 236 238 
237 239 238 240 239 241 240 242 241 
243 242 244 243 246 245 247 246 248 
247 249 248 250 249 251 250 252 251 
253 252 254 253 255 254 256 255 257 
256 258 257 259 258 260 259 261 260 
262 261 263 262 264 263 265 264 267 
266 268 267 269 268 270 269 271 270 
272 271 273 272 274 273 275 274 276 
275 277 276 278 277 279 278 280 279 
281 280 282 281 283 282 284 283 285 
284 286 285 288 287 289 288 290 289 
291 290 292 291 293 292 294 293 295 
294 296 295 297 296 298 297 299 298 
300 299 301 300 302 301 303 302 304 
303 305 304 306 305 307 306 309 308 
310 309 311 310 312 311 313 312 314 
313 315 314 316 315 317 316 318 317 
319 318 320 319 321 320 322 321 323 
322 324 323 325 324 326 325 327 326 
328 327 330 329 331 330 332 331 333 
332 334 333 335 334 336 335 337 336 
338 337 339 338 340 339 341 340 342 
341 343 342 344 343 345 344 346 345 
347 346 348 347 349 348 351 350 352 
351 353 352 354 353 355 354 356 355 
357 356 358 357 359 358 360 359 361 
360 362 361 363 362 364 363 365 364 
366 365 367 366 368 367 369 368 370 
369 372 371 373 372 374 373 375 374 
376 375 377 376 378 377 379 378 380 
379 381 380 382 381 383 382 384 383 
385 384 386 385 387 386 388 387 389 
388 390 389 391 390 393 392 394 393 
395 394 396 395 397 396 398 397 399 
398 400 399 401 400 402 401 403 402 
404 403 405 404 406 405 407 406 408 
407 409 408 410 409 411 410 413 412 
414 413 415 414 416 415 417 416 418 
417 419 418 420 419 421 420 422 421 
423 422 424 423 426 425 427 426 428 
427 429 428 430 429 431 430 432 431 
433 432 434 433 435 434 436 435 437 
436 438 437 439 438 466 440 439 441 
440 442 441 443 442 444 443 445 444 
446 445 447 446 468 448 447 449 448 
450 449 451 450 452 451 453 452 454 
453 455 454 470 456 455 457 456 458 
457 459 458 460 459 461 460 462 461 
463 462 472 464 463 465 464 467 466 
469 468 471 470 473 472 
CELL_TYPES 451
3
3
3
3
3
3
3
3
3
3
3
3
3
3
3
3
3
3
3
3
3
3
3
3
3
3
3
3
3
3
3
3
3
3
3
3
3
3
3
3
3
3
3
3
3
3
3
3
3
3
3
3
3
3
3
3
3
3
3
3
3
3
3
3
3
3
3
3
3
3
3
3
3
3
3
3
3
3
3
3
3
3
3
3
3
3
3
3
3
3
3
3
3
3
3
3
3
3
3
3
3
3
3
3
3
3
3
3
3
3
3
3
3
3
3
3
3
3
3
3
3
3
3
3
3
3
3
3
3
3
3
3
3
3
3
3
3
3
3
3
3
3
3
3
3
3
3
3
3
3
3
3
3
3
3
3
3
3
3
3
3
3
3
3
3
3
3
3
3
3
3
3
3
3
3
3
3
3
3
3
3
3
3
3
3
3
3
3
3
3
3
3
3
3
3
3
3
3
3
3
3
3
3
3
3
3
3
3
3
3
3
3
3
3
3
3
3
3
3
3
3
3
3
3
3
3
3
3
3
3
3
3
3
3
3
3
3
3
3
3
3
3
3
3
3
3
3
3
3
3
3
3
3
3
3
3
3
3
3
3
3
3
3
3
3
3
3
3
3
3
3
3
3
3
3
3
3
3
3
3
3
3
3
3
3
3
3
3
3
3
3
3
3
3
3
3
3
3
3
3
3
3
3
3
3
3
3
3
3
3
3
3
3
3
3
3
3
3
3
3
3
3
3
3
3
3
3
3
3
3
3
3
3
3
3
3
3
3
3
3
3
3
3
3
3
3
3
3
3
3
3
3
3
3
3
3
3
3
3
3
3
3
3
3
3
3
3
3
3
3
3
3
3
3
3
3
3
3
3
3
3
3
3
3
3
3
3
3
3
3
3
3
3
3
3
3
3
3
3
3
3
3
3
3
3
3
3
3
3
3
3
3
3
3
3
3
3
3
3
3
3
3
3
3
3
3
3
3
3
3
3
3
3
3
3
3
3
3
3
3
3
3
3
3
3
3
3
3
3
3
3

CELL_DATA 451
SCALARS solution%20variable double
LOOKUP_TABLE default
6699.0488998 6471.1914287 6236.9132155 5994.0089585 5799.8427819 5598.3682751 5389.9229787 5173.6551242 5001.4135127 
4822.5925134 4637.4888014 4445.3085898 4292.6025101 4133.9752748 3969.6883929 3798.9994593 3663.4658193 3522.5891739 
3376.6011266 3224.8008818 3104.1392159 2978.6246835 2848.4635966 2712.9831532 2605.0018621 2492.5634091 2375.8522619 
2254.2046615 2156.9136645 2055.4646998 1950.0212752 1839.9014523 1751.7496032 1659.6591752 1563.7680026 1463.3365753 
1383.6237248 1300.1786774 1213.103476 1121.5537581 1050.1821615 975.3343293 897.07126942 814.38937905 751.25123631 
684.95056011 615.50206028 541.6469455 486.53155904 428.69439566 368.133587 303.09497084 255.70793351 206.47117044 
155.72164448 100.38234702 59.872655985 19.575494557 1.3306614352 0.0038587321342 3.2930990543e-08 1.6431707567e-18 4.0548813996e-39 
2.4682890653e-80 1.209576538e-162 0 0 0 0 0 0 0 
0 0 0 0 5868.8449616 5741.0060429 5610.7701755 5477.9614887 5342.3828036 
5203.8118921 5061.9968464 4916.650286 4767.4420247 4613.9896647 4455.8463541 4292.4845848 4123.2743441 3947.4530105 
3764.0828262 3571.9890394 3369.6667502 3155.1346147 2925.6928625 589.34231309 5060.5614506 4945.0063879 4827.2494334 
4707.1195148 4584.4237516 4458.9434342 4330.428995 4198.5936474 4063.1052318 3923.5756105 3779.5466449 3630.4713039 
3475.6876625 3314.3822171 3145.5366059 2967.8475179 2779.601186 2578.4663547 2361.1298175 516.75793723 4343.8252942 
4240.1238339 4134.4463355 4026.6304611 3916.4921723 3803.821551 3688.3775264 3569.8811347 3448.0067801 3322.3707204 
3192.5156172 3057.8893689 2917.8154062 2771.4498206 2617.7173999 2455.2123014 2282.0360541 2095.5164929 1891.6791751 
449.38012855 3708.4766916 3616.0023967 3521.8038264 3425.7311078 3327.6133825 3227.2546089 3124.4282211 3018.8702382 
2910.2702382 2798.2593238 2682.3937572 2562.1321888 2436.8031193 2305.5569253 2167.2924242 2020.5392096 1863.2580539 
1692.4765333 1503.5549947 387.03435266 3144.4122018 3062.3564695 2978.8503253 2893.7599677 2806.9319051 2718.1888788 
2627.3246378 2534.0971442 2438.2195886 2339.3482864 2237.0660177 2130.8585185 2020.0803294 1903.903442 1781.2367869 
1650.5933417 1509.8559864 1355.828002 1183.2614464 329.32170118 2641.7133562 2569.0737768 2495.2775104 2420.2108148 
2343.7421291 2265.718252 2185.9594135 2104.252819 2020.3440454 1933.925342 1844.6193545 1751.95587 1655.3375282 
1553.9873307 1446.8645139 1332.5217854 1208.8445426 1072.5250452 917.84174609 275.55404657 2190.7508219 2126.2281814 
2060.8590532 1994.5555704 1927.2146802 1858.714714 1788.9109359 1717.6296731 1644.6604337 1569.7451014 1492.5627594 
1412.7077638 1329.6569856 1242.7188465 1150.9499844 1053.0101543 946.88798153 829.31698549 694.32378477 224.47526241 
1782.3673197 1724.0364908 1665.1661858 1605.7051068 1545.5911133 1484.7484235 1423.0839327 1360.4822945 1296.7992347 
1231.8522774 1165.4075671 1097.1605979 1026.7070384 953.49664405 876.75316065 795.33718415 707.47868851 610.18051266 
497.61344658 173.38574831 1408.9656332 1353.943668 1298.6036761 1242.9399946 1186.9441381 1130.6036298 1073.9003294 
1016.8080092 959.28879428 901.28502649 842.71217225 783.44692241 723.30658891 662.01490029 599.1423912 533.99545579 
465.38982894 391.11988334 306.4032744 115.73044316 1068.6411527 1015.0513984 961.207305 907.1138924 852.77567615 
798.19764959 743.38542144 688.34540609 633.08509387 577.61344568 521.94148733 466.08323869 410.05723221 353.88913399 
297.61658903 241.29901869 185.04006423 129.04983201 73.887798764 20.336819598 763.14719555 711.14409455 658.92334382 
606.49197482 553.85831638 501.03250777 448.0272961 394.85933297 341.55140246 288.13652605 234.66625844 181.22980471 
128.00799314 75.489992812 26.351425621 2.1616957176 0.0094883642756 1.448370038e-07 3.1641702522e-17 1.5245343142e-36 492.44700966 
442.33274173 392.06233588 341.65429428 291.13471674 240.54307604 189.94481973 139.46339765 89.381350146 40.596038119 
6.3630550202 0.09682794861 1.6265625913e-05 4.0455839933e-13 2.4585613382e-28 9.0759793888e-59 1.2316809443e-119 2.1442514996e-241 0 
0 256.58832754 208.88100751 161.23952509 113.81511511 67.007487613 23.067463621 1.7912752953 0.0068554798827 
7.7257767294e-08 9.0304816519e-18 1.2246853254e-37 2.2513837743e-77 7.5364177336e-157 7.585373013e-316 0 0 0 
0 0 0 59.883316136 19.586019538 1.331829106 0.0038656788269 2.4787773103e-08 9.3099938883e-19 
1.3017020159e-39 2.5436821998e-81 9.6344852744e-165 0 0 0 0 0 0 
0 0 0 0 0 3.2930990543e-08 1.6431707567e-18 4.0548813996e-39 2.4682890653e-80 
9.0718240347e-163 0 0 0 0 0 0 0 0 
0 0 0 0 0 0 0 1.209576538e-162 0 
0 0 0 0 0 0 0 0 0 
0 0 0 0 0 0 0 0 0 
0 0 0 0 0 0 0 0 0 
0 0 6779.0737202 6858.4953057 6937.4909428 7016.0775062 7094.2708582 7172.0859183 7249.5367268 
7326.6365034 7403.3977011 7479.8320558 7555.9506322 7631.7638661 7707.2816035 7782.5131373 7857.4672403 7929.6983257 
8001.8217301 8073.7328777 8145.4375099 8216.9410385 8288.2485644 8359.364895 8430.2945606 8487.0430138 8543.88468 
8600.7551481 8657.6535869 8714.579084 8771.53065 8828.5072239 8885.5076776 8918.0840274 8950.9471128 8984.0738712 
9017.4610635 9051.1053722 9085.0034057 9119.1517023 9153.5467336 9153.532256 8004.9821232 9296.0040211 10386.102166 
11259.59394 
