# vtk DataFile Version 5.1
vtk output
ASCII
DATASET UNSTRUCTURED_GRID
POINTS 474 double
0 0 -3 -0.11344901018 0.17758382911 -3.1345113591 -0.25315847539 0.33878440002 -3.2648786912 
-0.38126193464 0.50363826191 -3.4024021726 -0.5126230829 0.66576812132 -3.5400907975 -0.65843420624 0.83063257984 -3.6586607204 
-0.82297351213 0.96639713451 -3.7890248355 -0.97532665543 1.1205572503 -3.9136168835 -1.1248934303 1.2712178784 -4.0456439831 
-1.260480867 1.4416481412 -4.1684021702 -1.3678821889 1.6074581306 -4.3216079256 -1.4660695894 1.784059061 -4.4688198332 
-1.5694943891 1.9404801104 -4.6341551474 -1.6843141616 2.0801145574 -4.8068358964 -1.7920938126 2.214324268 -4.9881403376 
-1.8953148049 2.3800598251 -5.1442721788 -1.9325266326 2.5204028889 -5.3477890193 -1.973129178 2.6634701459 -5.548744719 
-1.9865147688 2.7616205381 -5.7782819197 -2.0072616269 2.8605132642 -6.0069515429 -2.0326142165 2.9638917436 -6.2331597129 
-1.9920842053 3.0592208557 -6.4606892244 -1.9658829099 3.1812169213 -6.6773235986 -1.95489032 3.3115244098 -6.8903942944 
-1.9618163346 3.4463146723 -7.10083102 -1.9595558315 3.5807523934 -7.3115948434 -1.9591600912 3.7034011527 -7.5294414069 
-1.9922335507 3.8261433401 -7.744709848 -2.0235998482 3.9580476516 -7.9547512915 -2.053410198 4.0821397433 -8.16972221 
-2.0922570198 4.2101350542 -8.380928566 -2.0673262565 4.3390293584 -8.5936836256 -2.0611579752 4.4358891617 -8.8240748816 
-2.0457609566 4.5389463916 -9.0513239502 -2.0376118219 4.6474567449 -9.2763997037 -2.0620327306 4.7344755807 -9.5094905474 
-2.0678249667 4.7919692102 -9.7527207523 -2.0538188065 4.7894724803 -10.002315612 -2.061454029 4.7954964511 -10.25212637 
-2.0748719743 4.7792135014 -10.501234428 -2.0879807121 4.7450832286 -10.748546549 -2.1011430636 4.7103243177 -10.995768253 
-2.1002295418 4.7008537725 -11.245587136 -2.1048346881 4.6894878057 -11.495286169 -2.0641472069 4.6880886783 -11.741949039 
-2.0210511199 4.6768675797 -11.987950694 -1.9835084387 4.6483785121 -12.233468351 -1.9506827239 4.6230643942 -12.480007736 
-1.9004712217 4.6381689642 -12.724447211 -1.8375331244 4.6537107888 -12.96589544 -1.7745908329 4.6759472614 -13.206818265 
-1.7324654219 4.637703043 -13.450257845 -1.6671038275 4.5609504363 -13.679030438 -1.598399743 4.4811403079 -13.905768376 
-1.5362405788 4.3949975328 -14.132077148 -1.4802902991 4.3079524624 -14.359657292 -1.4132617365 4.2082396067 -14.578893508 
-1.3346237404 4.1025622853 -14.791374964 -1.2639046148 4.0215870271 -15.017077895 -1.1811068059 3.9440623254 -15.239865784 
-1.0986307142 3.8389919159 -15.45118995 -0.9637992344 3.7108445705 -15.618219079 -0.83607035007 3.5887696699 -15.795089231 
-0.67316557472 3.4694079904 -15.942448736 -0.49469270494 3.3540019539 -16.074087946 -0.32610371771 3.2396122859 -16.218976721 
-0.14820477506 3.1356714575 -16.360568636 0.012364935668 3.0233302117 -16.515800116 0.1549159304 2.9000749565 -16.680078405 
0.27000396814 2.7652117596 -16.856335778 0.3829086188 2.6314831379 -17.034855232 0.49747072388 2.4976228367 -17.212216287 
0.60083379182 2.4004242314 -17.418052405 0.66797056282 2.2936634265 -17.633910656 0.75017747883 2.1834571348 -17.842708636 
0.82913521304 2.0737203209 -18.053002496 0.84139766799 2.0604437881 -18.08156333 -0.5126230829 0.66576812132 -3.5400907975 
-0.52277406038 0.77956108233 -3.7624601292 -0.53449030145 0.89788545023 -3.982373916 -0.53515452505 1.0082199251 -4.2067081811 
-0.53644590475 1.1144897642 -4.4329935178 -0.53696454607 1.2507070137 -4.6426231721 -0.51878168185 1.3625180934 -4.8654856093 
-0.50273855675 1.4613674127 -5.0945520412 -0.49082816941 1.5488159746 -5.328455636 -0.53649707025 1.6336061495 -5.5591610277 
-0.58531137867 1.7180366746 -5.7893536638 -0.67092791921 1.7968155302 -6.0106310912 -0.74962718774 1.8695191762 -6.2365085027 
-0.83361798078 1.9305568324 -6.4639287111 -0.91700232593 1.9931029055 -6.6911621587 -0.9753928223 2.0369035191 -6.930268947 
-1.0475750197 2.0677300162 -7.1676282894 -1.1009443958 2.0963864931 -7.4101783173 -1.0913733021 2.1254249614 -7.6583015962 
-1.0949643175 2.1422303757 -7.9077102622 -1.0664266342 2.165504346 -8.1548653099 -1.1248934303 1.2712178784 -4.0456439831 
-1.3701105494 1.2938911888 -4.0025802454 -1.6157087444 1.3095406912 -3.9585732041 -1.8617989566 1.2971902892 -3.9162993943 
-2.1048102068 1.2871864009 -3.8584594899 -2.3536918581 1.2700404026 -3.8422133105 -2.6027259385 1.2509731012 -3.853097466 
-2.8484396668 1.2518422052 -3.8991844311 -3.0916583036 1.2465957369 -3.9567793032 -3.3338077351 1.2274596438 -4.0159186538 
-3.5641759617 1.2403219499 -4.1121737381 -3.7912733809 1.2235452575 -4.2153498243 -4.0204382622 1.2355273717 -4.3145460244 
-4.2478450942 1.2493184055 -4.4174826076 -4.4834828557 1.2739945955 -4.4972693924 -4.7217834282 1.3027450896 -4.567171082 
-4.9607669071 1.3311838138 -4.6348330046 -5.199558466 1.3700473821 -4.6978267701 -5.4302756926 1.4046385181 -4.7876767264 
-5.6506628044 1.4263130494 -4.9036928272 -5.8669179291 1.4821841882 -5.0156676629 -1.5694943891 1.9404801104 -4.6341551474 
-1.4895185985 2.1771164887 -4.6238063594 -1.381831314 2.3982210442 -4.5789039731 -1.2633369749 2.613011121 -4.5306928281 
-1.1462127147 2.8284302862 -4.4819435621 -1.0110186488 3.0229077887 -4.4019369025 -0.87475765502 3.2163027526 -4.3211202613 
-0.70885179817 3.3900448113 -4.2519180669 -0.54644443097 3.5633239055 -4.1738270778 -0.35505468441 3.7110359584 -4.1101787129 
-0.1483501848 3.8487343787 -4.0816761715 0.067808343634 3.9732436541 -4.0651555501 0.28749992486 4.0913120878 -4.0479667714 
0.50374755256 4.2143802933 -4.0236525716 0.73000447932 4.3146703998 -3.988301509 0.94938943915 4.4138568734 -3.9209792775 
1.1649049221 4.5245782177 -3.8593849555 1.3613181123 4.6701551205 -3.8071429788 1.5518888171 4.8233410947 -3.7550194358 
1.7445140987 4.9527028979 -3.6619548088 1.9520510821 5.0706612644 -3.5883375689 -1.9325266326 2.5204028889 -5.3477890193 
-2.0959306286 2.7087500879 -5.365801979 -2.2633102792 2.8933902522 -5.385602541 -2.4178782198 3.0885612485 -5.4083409222 
-2.5479432722 3.3001525355 -5.43684021 -2.6787178666 3.5102060499 -5.4725547247 -2.8107433098 3.7194501556 -5.5084181681 
-2.9413858908 3.9308341965 -5.5357915725 -3.0679742596 4.1429310387 -5.574396163 -3.2382620752 4.3194711085 -5.6227248669 
-3.4034421657 4.4981947511 -5.679938478 -3.5627383883 4.6713598955 -5.7644283958 -3.7260812147 4.8202216789 -5.8813013633 
-3.8851823596 4.9781299918 -5.9919891692 -4.0318882388 5.1192579924 -6.1371107474 -4.1776034972 5.267674107 -6.2758180666 
-4.3006385034 5.4063912843 -6.4435080543 -4.3993083167 5.5617470301 -6.612708705 -4.4888422999 5.7516090069 -6.7484882896 
-4.5691850661 5.9608949852 -6.8591427934 -4.6250139927 6.1476728782 -7.0152628647 -2.0326142165 2.9638917436 -6.2331597129 
-1.8379661322 2.9856981232 -6.3885193121 -1.6391598511 3.01010672 -6.5381197233 -1.4501474801 3.0433683747 -6.6983320385 
-1.259729815 3.1333976635 -6.8330014113 -1.0836211307 3.1947706356 -6.9994919203 -0.90834424086 3.2595978692 -7.1655504693 
-0.7571583047 3.3005064676 -7.3604075946 -0.60996519126 3.3440873206 -7.5577268704 -0.49002972453 3.3894289805 -7.7723419158 
-0.36913794691 3.4240836293 -7.988407261 -0.25986560906 3.4360709529 -8.212942025 -0.15574965957 3.4430170546 -8.4401239362 
-0.037148734201 3.3980559853 -8.65555913 0.11474077309 3.3523152081 -8.8487879034 0.25761539666 3.307527632 -9.0489900887 
0.37134473956 3.3170620605 -9.2714192487 0.45184428968 3.4066055838 -9.4905123337 0.52755006512 3.4859579188 -9.7151717258 
0.61963079677 3.5558990082 -9.9368232155 0.71155600796 3.6256716727 -10.158220968 -1.9618163346 3.4463146723 -7.10083102 
-2.0309726592 3.3358535308 -7.3141751996 -2.104616748 3.2322445112 -7.5294464686 -2.190188981 3.1546980797 -7.751175907 
-2.2976904794 3.0825969981 -7.9650563921 -2.3991063146 3.0081621014 -8.1810986901 -2.5152911443 2.932724715 -8.3892099249 
-2.6353777226 2.9151416721 -8.607773532 -2.7375207027 2.9036163259 -8.8356638083 -2.8064497636 2.8770738805 -9.0745032588 
-2.8451554793 2.8922226211 -9.3210238122 -2.8645235536 2.9469414014 -9.5641919285 -2.8916055665 2.9711691852 -9.8115369892 
-2.9352780296 2.950425028 -10.056817229 -2.9962578971 2.9862888521 -10.296598883 -3.0614373976 3.0026472426 -10.537397629 
-3.1480640416 3.0173237865 -10.77144981 -3.2331271899 3.0370317538 -11.005705774 -3.288509663 3.025893663 -11.249239601 
-3.320897827 3.0297427036 -11.497102853 -3.3208786737 3.0038642036 -11.745309351 -2.0235998482 3.9580476516 -7.9547512915 
-1.8641792939 4.1284428016 -8.0444763141 -1.703088157 4.2983186837 -8.1321793946 -1.5312487767 4.4435719007 -8.2411414537 
-1.3581433132 4.5892239683 -8.3475368188 -1.1862146091 4.7158958043 -8.4775166889 -1.0186464144 4.8089534404 -8.6380195752 
-0.86800983641 4.8930373924 -8.8189574385 -0.72884017182 4.9763139347 -9.0092120626 -0.59088419752 5.0655988889 -9.1976168027 
-0.45467165021 5.1541236562 -9.3876418208 -0.32760832179 5.2513809607 -9.5797249468 -0.20178605879 5.3528466093 -9.770443274 
-0.086646172337 5.4573309696 -9.9662131005 0.03316044533 5.5673355231 -10.15606929 0.1539268129 5.6761187869 -10.346021089 
0.26904779452 5.7614038547 -10.550895726 0.38126424888 5.8387279751 -10.76048687 0.52095386486 5.9122322598 -10.954352626 
0.65941290954 5.9812120167 -11.150747346 0.83217367741 6.082715558 -11.299200735 -2.0611579752 4.4358891617 -8.8240748816 
-2.2749039929 4.4474172946 -8.9532249573 -2.4981042812 4.4241463158 -9.0634070468 -2.7250734602 4.4038012478 -9.1662227557 
-2.9418091811 4.3703748547 -9.2862573487 -3.1667417949 4.3351481088 -9.3895259095 -3.3871943636 4.2952164277 -9.5004588882 
-3.6033343095 4.2456788972 -9.6159125883 -3.8152564157 4.1965541869 -9.7391026194 -4.0309626123 4.1245192607 -9.8429380958 
-4.2473437712 4.0832631956 -9.9611630135 -4.4655861722 4.0789046166 -10.083028748 -4.6819146229 4.0739012266 -10.208236445 
-4.9124821926 4.0776730423 -10.304799219 -5.1348570088 4.0688567566 -10.418692652 -5.3596202142 4.1049321565 -10.522037062 
[...]
CELL_DATA 451
SCALARS solution%20variable double
LOOKUP_TABLE default
6892.8327939 6662.027672 6424.7259375 6178.7349276 5982.0582248 5778.0082509 5566.9251137 5347.9683845 5173.6344405 
4992.6720429 4805.3793725 4610.9775313 4456.6514727 4296.3767577 4130.4152959 3958.0447322 3821.4168799 3679.446584 
3532.3647629 3379.4980498 3258.3154988 3132.3161666 3001.7047943 2865.8466321 2757.9434223 2645.6628006 2529.1874894 
2407.9074864 2311.2462628 2210.5562964 2106.001257 1996.9769735 1909.7434609 1818.7395506 1724.110134 1625.229902 
1546.0837784 1463.3568775 1377.1698591 1286.8378078 1215.2826942 1140.3382796 1062.0920106 979.75635395 915.74299683 
848.57725558 778.3046872 703.97910018 647.40014034 587.96149246 525.6685757 459.31532056 409.96482221 358.17767271 
303.95211324 245.5523026 203.08791314 159.12582509 114.28322537 65.648258803 30.119212391 4.0954174093 0.044625573375 
3.6641445495e-06 2.7813044285e-14 1.1629460058e-30 2.0308837217e-63 6.1819642384e-129 7.4024934911e-260 0 0 0 
0 0 0 0 6052.1239612 5922.755511 5790.9025772 5656.3875807 5519.0117461 
5378.5514229 5234.7535424 5087.3299487 4935.9502426 4780.2326311 4619.7320593 4453.9245667 4282.1862865 4103.7646609 
3917.7380232 3722.9572271 3517.9584934 3300.8279546 3068.9804933 606.59201799 5233.4009712 5116.2758538 4996.8467878 
4874.9398945 4750.3594783 4622.8840473 4492.2613494 4358.2021088 4220.3720195 4078.381365 3931.7713424 3779.9957132 
3622.3956665 3458.1645486 3286.296967 3105.512869 2914.1396808 2709.9201475 2489.6790869 533.98723643 4508.0382277 
4402.7696682 4295.4069223 4185.7835443 4073.7112286 3958.9756456 3841.3311978 3720.4943345 3596.1349082 3467.8648213 
3335.2228484 3197.6539271 3054.4802374 2904.8596967 2747.7244509 2581.6861433 2404.8829746 2214.7177732 2007.3737903 
466.68744688 3866.1390585 3772.1546496 3676.3095552 3578.4482087 3478.3937216 3375.9436638 3270.8647064 3162.885728 
3051.6888079 2936.8972564 2818.0593948 2694.6260817 2565.9187559 2431.0825925 2289.0153012 2138.2540222 1976.7855518 
1801.7048139 1608.5401726 404.59882499 3297.8755581 3214.4409331 3129.3981104 3042.6055169 2953.9013367 2863.099369 
2769.9837321 2674.3019909 2575.7560946 2473.990206 2368.574008 2258.9792471 2144.5458254 2024.4311158 1897.531074 
1762.3512071 1616.7818757 1457.6736375 1279.9395147 347.44101121 2793.6167837 2719.8528342 2644.7491433 2568.1811042 
2490.0054363 2410.0562469 2328.1399628 2244.028707 2157.4514936 2068.0822918 1975.5234791 1879.2822959 1778.7363044 
1673.0808282 1561.245349 1441.7529815 1312.4669888 1170.0884153 1009.0191749 294.72888604 2344.0213857 2278.8866407 
2212.6953285 2145.343259 2076.7096229 2006.6533712 1935.0085295 1861.5780374 1786.1255009 1708.3639211 1627.9399226 
1544.4110628 1457.2121027 1365.6028583 1268.5835981 1164.7492249 1052.0174175 927.06471847 783.95491777 245.68890877 
1940.1123091 1882.2829891 1823.6920266 1764.26121 1703.898476 1642.4947245 1579.9196713 1516.0163636 1450.5937869 
1383.4166902 1314.1912275 1242.5441012 1167.9911972 1089.8884012 1007.3503753 919.10731782 823.22341915 716.50142897 
592.92996574 198.96519661 1573.462035 1520.976188 1468.0129982 1414.5309402 1360.4792178 1305.79527 1250.4014686 
1194.200683 1137.0702194 1078.8533703 1019.3473436 958.28551772 895.3075069 829.91675876 761.4088357 688.74011827 
610.26771835 523.16074624 421.76223208 151.6408642 1237.5181676 1187.5902755 1137.3698367 1086.8566744 1036.0492606 
984.94401794 933.53326761 881.80201756 829.7274703 777.27506624 724.3922656 670.99855433 616.96892854 562.10562275 
506.0874187 448.37281939 387.99755668 323.08842817 249.39156286 96.521675683 931.6769654 882.95333274 833.98233793 
784.76800448 735.3147305 685.62739717 635.71151841 585.57345238 535.2207082 484.66240487 433.90998342 382.97836161 
331.88791033 280.6680786 229.36468324 178.05660417 126.90232575 76.319284468 28.302819487 2.6487681247 657.39604772 
610.0803864 562.55169876 514.81702737 466.88481529 418.76550196 370.47248442 322.02375285 273.44486927 224.7749008 
176.07978043 127.48813034 79.315896771 32.73945201 3.9618402377 0.036019646805 2.2048402808e-06 7.3997665435e-15 8.2241994185e-32 
1.0408739537e-65 414.59814734 368.9893594 323.22847443 277.33563419 231.34056797 185.29079482 139.27102018 93.459242188 
48.376190255 10.922736584 0.33870272146 0.00021921688251 7.558557512e-11 8.5969316656e-24 1.1098368663e-49 1.8471622629e-101 5.0006264989e-205 
0 0 0 203.41763344 160.10560539 116.91969659 74.085210411 32.309779299 4.428097802 
0.049901090812 4.4682525263e-06 3.0794171627e-14 1.4250037981e-30 3.0491329675e-63 1.3920677164e-128 2.7850359552e-259 0 0 
0 0 0 0 0 30.125634127 4.0973339713 0.044660388674 3.669546984e-06 
2.0920790645e-14 6.5798795591e-31 6.5013228436e-64 6.3351684677e-130 5.8302617788e-262 0 0 0 0 
0 0 0 0 0 0 0 2.7813044285e-14 1.1629460058e-30 
2.0308837217e-63 6.1819642384e-129 5.5518701183e-260 0 0 0 0 0 0 
0 0 0 0 0 0 0 0 7.4024934911e-260 
0 0 0 0 0 0 0 0 0 
0 0 6973.8899422 7054.2516515 7134.0972104 7213.4458737 7292.3158082 7370.7241671 7448.6871584 
7526.2201071 7603.3375125 7680.0531013 7756.3798761 7832.3301602 7907.9156396 7983.1474012 8058.0359684 8130.1867352 
8202.1624467 8273.8631716 8345.2962661 8416.4687228 8487.3871898 8558.0579898 8628.4871365 8684.9911604 8741.5235749 
8798.0233577 8854.4910572 8910.9271272 8967.3319316 9023.7057492 9080.0487779 9112.4265136 9145.0251932 9177.8233162 
9210.8185624 9244.0085518 9277.3908477 9310.9629593 9344.7223444 9344.7107887 8202.6161359 9475.4049314 10550.322995 
11410.524496 
