# vtk DataFile Version 5.1
vtk output
ASCII
DATASET UNSTRUCTURED_GRID
POINTS 474 double
0 0 -3 -0.11344901018 0.17758382911 -3.1345113591 -0.25315847539 0.33878440002 -3.2648786912 
-0.38126193464 0.50363826191 -3.4024021726 -0.5126230829 0.66576812132 -3.5400907975 -0.65843420624 0.83063257984 -3.6586607204 
-0.82297351213 0.96639713451 -3.7890248355 -0.97532665543 1.1205572503 -3.9136168835 -1.1248934303 1.2712178784 -4.0456439831 
-1.260480867 1.4416481412 -4.1684021702 -1.3678821889 1.6074581306 -4.3216079256 -1.4660695894 1.784059061 -4.4688198332 
-1.5694943891 1.9404801104 -4.6341551474 -1.6843141616 2.0801145574 -4.8068358964 -1.7920938126 2.214324268 -4.9881403376 
-1.8953148049 2.3800598251 -5.1442721788 -1.9325266326 2.5204028889 -5.3477890193 -1.973129178 2.6634701459 -5.548744719 
-1.9865147688 2.7616205381 -5.7782819197 -2.0072616269 2.8605132642 -6.0069515429 -2.0326142165 2.9638917436 -6.2331597129 
-1.9920842053 3.0592208557 -6.4606892244 -1.9658829099 3.1812169213 -6.6773235986 -1.95489032 3.3115244098 -6.8903942944 
-1.9618163346 3.4463146723 -7.10083102 -1.9595558315 3.5807523934 -7.3115948434 -1.9591600912 3.7034011527 -7.5294414069 
-1.9922335507 3.8261433401 -7.744709848 -2.0235998482 3.9580476516 -7.9547512915 -2.053410198 4.0821397433 -8.16972221 
-2.0922570198 4.2101350542 -8.380928566 -2.0673262565 4.3390293584 -8.5936836256 -2.0611579752 4.4358891617 -8.8240748816 
-2.0457609566 4.5389463916 -9.0513239502 -2.0376118219 4.6474567449 -9.2763997037 -2.0620327306 4.7344755807 -9.5094905474 
-2.0678249667 4.7919692102 -9.7527207523 -2.0538188065 4.7894724803 -10.002315612 -2.061454029 4.7954964511 -10.25212637 
-2.0748719743 4.7792135014 -10.501234428 -2.0879807121 4.7450832286 -10.748546549 -2.1011430636 4.7103243177 -10.995768253 
-2.1002295418 4.7008537725 -11.245587136 -2.1048346881 4.6894878057 -11.495286169 -2.0641472069 4.6880886783 -11.741949039 
-2.0210511199 4.6768675797 -11.987950694 -1.9835084387 4.6483785121 -12.233468351 -1.9506827239 4.6230643942 -12.480007736 
-1.9004712217 4.6381689642 -12.724447211 -1.8375331244 4.6537107888 -12.96589544 -1.7745908329 4.6759472614 -13.206818265 
-1.7324654219 4.637703043 -13.450257845 -1.6671038275 4.5609504363 -13.679030438 -1.598399743 4.4811403079 -13.905768376 
-1.5362405788 4.3949975328 -14.132077148 -1.4802902991 4.3079524624 -14.359657292 -1.4132617365 4.2082396067 -14.578893508 
-1.3346237404 4.1025622853 -14.791374964 -1.2639046148 4.0215870271 -15.017077895 -1.1811068059 3.9440623254 -15.239865784 
-1.0986307142 3.8389919159 -15.45118995 -0.9637992344 3.7108445705 -15.618219079 -0.83607035007 3.5887696699 -15.795089231 
-0.67316557472 3.4694079904 -15.942448736 -0.49469270494 3.3540019539 -16.074087946 -0.32610371771 3.2396122859 -16.218976721 
-0.14820477506 3.1356714575 -16.360568636 0.012364935668 3.0233302117 -16.515800116 0.1549159304 2.9000749565 -16.680078405 
0.27000396814 2.7652117596 -16.856335778 0.3829086188 2.6314831379 -17.034855232 0.49747072388 2.4976228367 -17.212216287 
0.60083379182 2.4004242314 -17.418052405 0.66797056282 2.2936634265 -17.633910656 0.75017747883 2.1834571348 -17.842708636 
0.82913521304 2.0737203209 -18.053002496 0.84139766799 2.0604437881 -18.08156333 -0.5126230829 0.66576812132 -3.5400907975 
-0.52277406038 0.77956108233 -3.7624601292 -0.53449030145 0.89788545023 -3.982373916 -0.53515452505 1.0082199251 -4.2067081811 
-0.53644590475 1.1144897642 -4.4329935178 -0.53696454607 1.2507070137 -4.6426231721 -0.51878168185 1.3625180934 -4.8654856093 
-0.50273855675 1.4613674127 -5.0945520412 -0.49082816941 1.5488159746 -5.328455636 -0.53649707025 1.6336061495 -5.5591610277 
-0.58531137867 1.7180366746 -5.7893536638 -0.67092791921 1.7968155302 -6.0106310912 -0.74962718774 1.8695191762 -6.2365085027 
-0.83361798078 1.9305568324 -6.4639287111 -0.91700232593 1.9931029055 -6.6911621587 -0.9753928223 2.0369035191 -6.930268947 
-1.0475750197 2.0677300162 -7.1676282894 -1.1009443958 2.0963864931 -7.4101783173 -1.0913733021 2.1254249614 -7.6583015962 
-1.0949643175 2.1422303757 -7.9077102622 -1.0664266342 2.165504346 -8.1548653099 -1.1248934303 1.2712178784 -4.0456439831 
-1.3701105494 1.2938911888 -4.0025802454 -1.6157087444 1.3095406912 -3.9585732041 -1.8617989566 1.2971902892 -3.9162993943 
-2.1048102068 1.2871864009 -3.8584594899 -2.3536918581 1.2700404026 -3.8422133105 -2.6027259385 1.2509731012 -3.853097466 
-2.8484396668 1.2518422052 -3.8991844311 -3.0916583036 1.2465957369 -3.9567793032 -3.3338077351 1.2274596438 -4.0159186538 
-3.5641759617 1.2403219499 -4.1121737381 -3.7912733809 1.2235452575 -4.2153498243 -4.0204382622 1.2355273717 -4.3145460244 
-4.2478450942 1.2493184055 -4.4174826076 -4.4834828557 1.2739945955 -4.4972693924 -4.7217834282 1.3027450896 -4.567171082 
-4.9607669071 1.3311838138 -4.6348330046 -5.199558466 1.3700473821 -4.6978267701 -5.4302756926 1.4046385181 -4.7876767264 
-5.6506628044 1.4263130494 -4.9036928272 -5.8669179291 1.4821841882 -5.0156676629 -1.5694943891 1.9404801104 -4.6341551474 
-1.4895185985 2.1771164887 -4.6238063594 -1.381831314 2.3982210442 -4.5789039731 -1.2633369749 2.613011121 -4.5306928281 
-1.1462127147 2.8284302862 -4.4819435621 -1.0110186488 3.0229077887 -4.4019369025 -0.87475765502 3.2163027526 -4.3211202613 
-0.70885179817 3.3900448113 -4.2519180669 -0.54644443097 3.5633239055 -4.1738270778 -0.35505468441 3.7110359584 -4.1101787129 
-0.1483501848 3.8487343787 -4.0816761715 0.067808343634 3.9732436541 -4.0651555501 0.28749992486 4.0913120878 -4.0479667714 
0.50374755256 4.2143802933 -4.0236525716 0.73000447932 4.3146703998 -3.988301509 0.94938943915 4.4138568734 -3.9209792775 
1.1649049221 4.5245782177 -3.8593849555 1.3613181123 4.6701551205 -3.8071429788 1.5518888171 4.8233410947 -3.7550194358 
1.7445140987 4.9527028979 -3.6619548088 1.9520510821 5.0706612644 -3.5883375689 -1.9325266326 2.5204028889 -5.3477890193 
-2.0959306286 2.7087500879 -5.365801979 -2.2633102792 2.8933902522 -5.385602541 -2.4178782198 3.0885612485 -5.4083409222 
-2.5479432722 3.3001525355 -5.43684021 -2.6787178666 3.5102060499 -5.4725547247 -2.8107433098 3.7194501556 -5.5084181681 
-2.9413858908 3.9308341965 -5.5357915725 -3.0679742596 4.1429310387 -5.574396163 -3.2382620752 4.3194711085 -5.6227248669 
-3.4034421657 4.4981947511 -5.679938478 -3.5627383883 4.6713598955 -5.7644283958 -3.7260812147 4.8202216789 -5.8813013633 
-3.8851823596 4.9781299918 -5.9919891692 -4.0318882388 5.1192579924 -6.1371107474 -4.1776034972 5.267674107 -6.2758180666 
-4.3006385034 5.4063912843 -6.4435080543 -4.3993083167 5.5617470301 -6.612708705 -4.4888422999 5.7516090069 -6.7484882896 
-4.5691850661 5.9608949852 -6.8591427934 -4.6250139927 6.1476728782 -7.0152628647 -2.0326142165 2.9638917436 -6.2331597129 
-1.8379661322 2.9856981232 -6.3885193121 -1.6391598511 3.01010672 -6.5381197233 -1.4501474801 3.0433683747 -6.6983320385 
-1.259729815 3.1333976635 -6.8330014113 -1.0836211307 3.1947706356 -6.9994919203 -0.90834424086 3.2595978692 -7.1655504693 
-0.7571583047 3.3005064676 -7.3604075946 -0.60996519126 3.3440873206 -7.5577268704 -0.49002972453 3.3894289805 -7.7723419158 
-0.36913794691 3.4240836293 -7.988407261 -0.25986560906 3.4360709529 -8.212942025 -0.15574965957 3.4430170546 -8.4401239362 
-0.037148734201 3.3980559853 -8.65555913 0.11474077309 3.3523152081 -8.8487879034 0.25761539666 3.307527632 -9.0489900887 
0.37134473956 3.3170620605 -9.2714192487 0.45184428968 3.4066055838 -9.4905123337 0.52755006512 3.4859579188 -9.7151717258 
0.61963079677 3.5558990082 -9.9368232155 0.71155600796 3.6256716727 -10.158220968 -1.9618163346 3.4463146723 -7.10083102 
-2.0309726592 3.3358535308 -7.3141751996 -2.104616748 3.2322445112 -7.5294464686 -2.190188981 3.1546980797 -7.751175907 
-2.2976904794 3.0825969981 -7.9650563921 -2.3991063146 3.0081621014 -8.1810986901 -2.5152911443 2.932724715 -8.3892099249 
-2.6353777226 2.9151416721 -8.607773532 -2.7375207027 2.9036163259 -8.8356638083 -2.8064497636 2.8770738805 -9.0745032588 
-2.8451554793 2.8922226211 -9.3210238122 -2.8645235536 2.9469414014 -9.5641919285 -2.8916055665 2.9711691852 -9.8115369892 
-2.9352780296 2.950425028 -10.056817229 -2.9962578971 2.9862888521 -10.296598883 -3.0614373976 3.0026472426 -10.537397629 
-3.1480640416 3.0173237865 -10.77144981 -3.2331271899 3.0370317538 -11.005705774 -3.288509663 3.025893663 -11.249239601 
-3.320897827 3.0297427036 -11.497102853 -3.3208786737 3.0038642036 -11.745309351 -2.0235998482 3.9580476516 -7.9547512915 
-1.8641792939 4.1284428016 -8.0444763141 -1.703088157 4.2983186837 -8.1321793946 -1.5312487767 4.4435719007 -8.2411414537 
-1.3581433132 4.5892239683 -8.3475368188 -1.1862146091 4.7158958043 -8.4775166889 -1.0186464144 4.8089534404 -8.6380195752 
-0.86800983641 4.8930373924 -8.8189574385 -0.72884017182 4.9763139347 -9.0092120626 -0.59088419752 5.0655988889 -9.1976168027 
-0.45467165021 5.1541236562 -9.3876418208 -0.32760832179 5.2513809607 -9.5797249468 -0.20178605879 5.3528466093 -9.770443274 
-0.086646172337 5.4573309696 -9.9662131005 0.03316044533 5.5673355231 -10.15606929 0.1539268129 5.6761187869 -10.346021089 
0.26904779452 5.7614038547 -10.550895726 0.38126424888 5.8387279751 -10.76048687 0.52095386486 5.9122322598 -10.954352626 
0.65941290954 5.9812120167 -11.150747346 0.83217367741 6.082715558 -11.299200735 -2.0611579752 4.4358891617 -8.8240748816 
-2.2749039929 4.4474172946 -8.9532249573 -2.4981042812 4.4241463158 -9.0634070468 -2.7250734602 4.4038012478 -9.1662227557 
-2.9418091811 4.3703748547 -9.2862573487 -3.1667417949 4.3351481088 -9.3895259095 -3.3871943636 4.2952164277 -9.5004588882 
-3.6033343095 4.2456788972 -9.6159125883 -3.8152564157 4.1965541869 -9.7391026194 -4.0309626123 4.1245192607 -9.8429380958 
-4.2473437712 4.0832631956 -9.9611630135 -4.4655861722 4.0789046166 -10.083028748 -4.6819146229 4.0739012266 -10.208236445 
-4.9124821926 4.0776730423 -10.304799219 -5.1348570088 4.0688567566 -10.418692652 -5.3596202142 4.1049321565 -10.522037062 
[...]
CELL_DATA 451
SCALARS solution%20variable double
LOOKUP_TABLE default
7079.443691 6845.7598425 6605.504871 6356.4961979 6157.3459451 5950.7557175 5737.068206 5515.4523883 5339.0264719 
5155.9186687 4966.4287431 4769.7899954 4613.8048941 4451.8359857 4284.1456954 4110.0279356 3972.2270174 3829.0724819 
3680.794648 3526.7421724 3404.9256802 3278.3117754 3147.103501 3010.6962285 2902.7456376 2790.4751784 2674.0649939 
2552.9467792 2456.8473888 2356.8232971 2253.0355179 2144.9386831 2058.8134343 1969.0735763 1875.8636644 1778.6434134 
1700.8386151 1619.6459288 1535.1935972 1446.9212518 1376.244224 1302.3448679 1225.3298885 1144.5832601 1080.6360892 
1013.6387893 943.6686939 870.01163672 812.77093792 752.68680478 689.79712077 623.24242418 572.61338008 519.40384197 
463.61512321 404.1433348 359.9462165 313.55204418 264.95661365 212.54592427 174.43246141 135.00157708 94.94624246 
51.720686377 20.335400846 1.7848217778 0.0081101907481 1.1810409984e-07 2.8691227432e-17 1.2370322919e-36 2.2978300903e-75 7.9088918848e-153 
9.0073251535e-308 0 0 0 6228.5108646 6097.6923885 5964.3094015 5828.1829557 5689.1130341 
5546.8749346 5401.2148122 5251.8441313 5098.4326807 4940.5996684 4777.9022099 4609.8202108 4435.7361592 4254.9075629 
4066.4284659 3869.1742401 3661.7198043 3442.2137346 3208.1751538 622.96049664 5399.4737653 5280.8492921 5159.8278206 
5036.2331486 4909.8672776 4780.5064795 4647.8963996 4511.7458922 4371.7191625 4227.4256093 4078.4064876 3924.1170821 
3763.9023956 3596.9632103 3422.3074072 3238.6778696 3044.441529 2837.4104059 2614.535491 550.2951016 4665.4392375 
4558.6577714 4449.674827 4338.320527 4224.4030241 4107.7043572 3987.9752453 3864.9284653 3738.2303126 3607.4894192 
3472.2418545 3331.9308781 3185.8787892 3033.2467435 2872.9755775 2703.6953636 2523.5807609 2330.1062254 2119.6005342 
483.00350949 4016.7534411 3921.2843594 3823.8313891 3724.2342366 3622.311023 3517.8540539 3410.6244601 3300.345316 
3186.6926739 3069.2836826 2947.6605434 2821.268366 2689.4238265 2551.269474 2405.7047314 2251.2771698 2086.0019121 
1907.0408577 1710.0801584 421.05504388 3443.8471288 3359.0080851 3272.4192333 3183.932684 3093.3798651 3000.5673325 
2905.2714226 2807.2313296 2706.1400007 2601.6319426 2493.2665543 2380.5047999 2262.6756429 2138.9261527 2008.1443716 
1868.8342125 1718.8999375 1555.244632 1372.9382448 364.25678454 2937.3666111 2862.3528236 2785.8356124 2707.6819142 
2627.7393375 2545.8321326 2461.7560157 2375.2714194 2286.0945419 2193.8852487 2098.2303556 1998.6199359 1894.4127245 
1784.7837726 1668.6417657 1544.4912688 1410.1870742 1262.4549077 1095.8310857 312.24853969 2488.2669636 2422.1685418 
2354.8232897 2286.115251 2215.9108823 2144.0552886 2070.3673618 1994.6334008 1916.5985923 1835.9554009 1752.3273757 
1665.245945 1574.116084 1478.1635413 1376.3498387 1267.2271242 1148.6708781 1017.3349238 867.36523965 264.48618722 
2087.8719065 2029.6551812 1970.4582785 1910.1851366 1848.7242283 1785.9451528 1721.6942138 1655.788586 1588.0084779 
1518.0863762 1445.6919226 1370.4100325 1291.7081476 1208.8851868 1120.9878762 1026.6646428 923.88844906 809.36181708 
677.03366353 220.16800199 1727.916578 1676.3042444 1623.9867091 1570.8927301 1516.9383318 1462.0238498 1406.0300739 
1348.8131344 1290.1975928 1229.9668994 1167.8498808 1103.5010257 1036.4706853 966.15804559 891.73047584 811.98247934 
725.0642831 627.87696975 514.45294914 177.95978453 1400.7038353 1353.8276622 1306.5088993 1258.7111243 1210.3896193 
1161.4891027 1111.9407185 1061.6579836 1010.531236 958.41987205 905.13835606 850.441223 793.9982671 735.35389632 
673.85844344 608.54338222 537.87148619 459.16231529 366.95140567 135.03176594 1100.41346 1055.6810542 1010.6721368 
965.38826082 919.82780765 873.98669001 827.85807792 781.43102353 734.68834433 687.60331303 640.13438311 592.21659334 
543.74716807 494.56053459 444.38294054 392.744655 338.79397055 280.84410113 214.9725085 84.389959552 826.88282652 
783.15199003 739.17873758 694.96667649 650.51974372 605.84230164 560.93927157 515.816324 470.48015725 424.93891885 
379.20286734 333.28546032 287.205246 240.98939087 194.68089685 148.3554643 102.17056731 56.588088735 15.843407869 
0.78888946769 581.38846578 538.84942262 496.09898154 453.14345646 409.9904142 366.64922128 323.13193651 279.45484914 
235.64131979 191.72754462 147.77598318 103.91443029 60.504910639 19.895763862 1.3706627632 0.0040871119355 2.768593854e-08 
1.1612646945e-18 2.0252248779e-39 6.462358865e-81 363.91107832 322.84206985 281.61638812 240.25242998 198.77777695 157.23770253 
115.71664314 74.403884295 33.861547356 5.1754331029 0.071723927559 9.500575316e-06 1.4039802712e-13 2.9635844077e-29 1.3188398285e-60 
2.6065297648e-123 9.8674451728e-249 0 0 0 174.63004518 135.60315402 96.687482282 58.136655482 
21.179289659 1.8150816894 0.0080154360913 1.1256571612e-07 1.9422055836e-17 5.6668950682e-37 4.8217974934e-76 3.4773113156e-154 1.7157898272e-310 
0 0 0 0 0 0 0 20.340186027 1.7852045859 
0.0081138552182 1.1821256287e-07 2.1558050387e-17 6.9839615446e-37 7.3241890308e-76 8.0352465547e-154 9.2974787715e-310 0 0 
0 0 0 0 0 0 0 0 2.8691227432e-17 
1.2370322919e-36 2.2978300903e-75 7.9088918848e-153 9.0073251535e-308 0 0 0 0 0 
0 0 7161.5091548 7242.7934035 7323.4775987 7403.583108 7483.130141 7562.1378286 7640.6242954 
7718.6067262 7796.1014264 7873.1238787 7949.688794 8025.8101596 8101.5012824 8176.7748302 8251.6428693 8323.7573051 
8395.6329506 8467.1739624 8538.3891222 8609.2868182 8679.8750661 8750.1615283 8820.1535323 8876.4549248 8932.7231455 
8988.9001774 9044.9877905 9100.9876499 9156.9013193 9212.7302663 9268.4758661 9300.6802447 9333.0430544 9365.5441857 
9398.1821337 9430.9553498 9463.8622436 9496.9011846 9530.0705037 9530.0617262 8393.5370975 9649.6889505 10710.542006 
11558.291337 
