# vtk DataFile Version 5.1
vtk output
ASCII
DATASET UNSTRUCTURED_GRID
POINTS 474 double
0 0 -3 -0.11344901018 0.17758382911 -3.1345113591 -0.25315847539 0.33878440002 -3.2648786912 
-0.38126193464 0.50363826191 -3.4024021726 -0.5126230829 0.66576812132 -3.5400907975 -0.65843420624 0.83063257984 -3.6586607204 
-0.82297351213 0.96639713451 -3.7890248355 -0.97532665543 1.1205572503 -3.9136168835 -1.1248934303 1.2712178784 -4.0456439831 
-1.260480867 1.4416481412 -4.1684021702 -1.3678821889 1.6074581306 -4.3216079256 -1.4660695894 1.784059061 -4.4688198332 
-1.5694943891 1.9404801104 -4.6341551474 -1.6843141616 2.0801145574 -4.8068358964 -1.7920938126 2.214324268 -4.9881403376 
-1.8953148049 2.3800598251 -5.1442721788 -1.9325266326 2.5204028889 -5.3477890193 -1.973129178 2.6634701459 -5.548744719 
-1.9865147688 2.7616205381 -5.7782819197 -2.0072616269 2.8605132642 -6.0069515429 -2.0326142165 2.9638917436 -6.2331597129 
-1.9920842053 3.0592208557 -6.4606892244 -1.9658829099 3.1812169213 -6.6773235986 -1.95489032 3.3115244098 -6.8903942944 
-1.9618163346 3.4463146723 -7.10083102 -1.9595558315 3.5807523934 -7.3115948434 -1.9591600912 3.7034011527 -7.5294414069 
-1.9922335507 3.8261433401 -7.744709848 -2.0235998482 3.9580476516 -7.9547512915 -2.053410198 4.0821397433 -8.16972221 
-2.0922570198 4.2101350542 -8.380928566 -2.0673262565 4.3390293584 -8.5936836256 -2.0611579752 4.4358891617 -8.8240748816 
-2.0457609566 4.5389463916 -9.0513239502 -2.0376118219 4.6474567449 -9.2763997037 -2.0620327306 4.7344755807 -9.5094905474 
-2.0678249667 4.7919692102 -9.7527207523 -2.0538188065 4.7894724803 -10.002315612 -2.061454029 4.7954964511 -10.25212637 
-2.0748719743 4.7792135014 -10.501234428 -2.0879807121 4.7450832286 -10.748546549 -2.1011430636 4.7103243177 -10.995768253 
-2.1002295418 4.7008537725 -11.245587136 -2.1048346881 4.6894878057 -11.495286169 -2.0641472069 4.6880886783 -11.741949039 
-2.0210511199 4.6768675797 -11.987950694 -1.9835084387 4.6483785121 -12.233468351 -1.9506827239 4.6230643942 -12.480007736 
-1.9004712217 4.6381689642 -12.724447211 -1.8375331244 4.6537107888 -12.96589544 -1.7745908329 4.6759472614 -13.206818265 
-1.7324654219 4.637703043 -13.450257845 -1.6671038275 4.5609504363 -13.679030438 -1.598399743 4.4811403079 -13.905768376 
-1.5362405788 4.3949975328 -14.132077148 -1.4802902991 4.3079524624 -14.359657292 -1.4132617365 4.2082396067 -14.578893508 
-1.3346237404 4.1025622853 -14.791374964 -1.2639046148 4.0215870271 -15.017077895 -1.1811068059 3.9440623254 -15.239865784 
-1.0986307142 3.8389919159 -15.45118995 -0.9637992344 3.7108445705 -15.618219079 -0.83607035007 3.5887696699 -15.795089231 
-0.67316557472 3.4694079904 -15.942448736 -0.49469270494 3.3540019539 -16.074087946 -0.32610371771 3.2396122859 -16.218976721 
-0.14820477506 3.1356714575 -16.360568636 0.012364935668 3.0233302117 -16.515800116 0.1549159304 2.9000749565 -16.680078405 
0.27000396814 2.7652117596 -16.856335778 0.3829086188 2.6314831379 -17.034855232 0.49747072388 2.4976228367 -17.212216287 
0.60083379182 2.4004242314 -17.418052405 0.66797056282 2.2936634265 -17.633910656 0.75017747883 2.1834571348 -17.842708636 
0.82913521304 2.0737203209 -18.053002496 0.84139766799 2.0604437881 -18.08156333 -0.5126230829 0.66576812132 -3.5400907975 
-0.52277406038 0.77956108233 -3.7624601292 -0.53449030145 0.89788545023 -3.982373916 -0.53515452505 1.0082199251 -4.2067081811 
-0.53644590475 1.1144897642 -4.4329935178 -0.53696454607 1.2507070137 -4.6426231721 -0.51878168185 1.3625180934 -4.8654856093 
-0.50273855675 1.4613674127 -5.0945520412 -0.49082816941 1.5488159746 -5.328455636 -0.53649707025 1.6336061495 -5.5591610277 
-0.58531137867 1.7180366746 -5.7893536638 -0.67092791921 1.7968155302 -6.0106310912 -0.74962718774 1.8695191762 -6.2365085027 
-0.83361798078 1.9305568324 -6.4639287111 -0.91700232593 1.9931029055 -6.6911621587 -0.9753928223 2.0369035191 -6.930268947 
-1.0475750197 2.0677300162 -7.1676282894 -1.1009443958 2.0963864931 -7.4101783173 -1.0913733021 2.1254249614 -7.6583015962 
-1.0949643175 2.1422303757 -7.9077102622 -1.0664266342 2.165504346 -8.1548653099 -1.1248934303 1.2712178784 -4.0456439831 
-1.3701105494 1.2938911888 -4.0025802454 -1.6157087444 1.3095406912 -3.9585732041 -1.8617989566 1.2971902892 -3.9162993943 
-2.1048102068 1.2871864009 -3.8584594899 -2.3536918581 1.2700404026 -3.8422133105 -2.6027259385 1.2509731012 -3.853097466 
-2.8484396668 1.2518422052 -3.8991844311 -3.0916583036 1.2465957369 -3.9567793032 -3.3338077351 1.2274596438 -4.0159186538 
-3.5641759617 1.2403219499 -4.1121737381 -3.7912733809 1.2235452575 -4.2153498243 -4.0204382622 1.2355273717 -4.3145460244 
-4.2478450942 1.2493184055 -4.4174826076 -4.4834828557 1.2739945955 -4.4972693924 -4.7217834282 1.3027450896 -4.567171082 
-4.9607669071 1.3311838138 -4.6348330046 -5.199558466 1.3700473821 -4.6978267701 -5.4302756926 1.4046385181 -4.7876767264 
-5.6506628044 1.4263130494 -4.9036928272 -5.8669179291 1.4821841882 -5.0156676629 -1.5694943891 1.9404801104 -4.6341551474 
-1.4895185985 2.1771164887 -4.6238063594 -1.381831314 2.3982210442 -4.5789039731 -1.2633369749 2.613011121 -4.5306928281 
-1.1462127147 2.8284302862 -4.4819435621 -1.0110186488 3.0229077887 -4.4019369025 -0.87475765502 3.2163027526 -4.3211202613 
-0.70885179817 3.3900448113 -4.2519180669 -0.54644443097 3.5633239055 -4.1738270778 -0.35505468441 3.7110359584 -4.1101787129 
-0.1483501848 3.8487343787 -4.0816761715 0.067808343634 3.9732436541 -4.0651555501 0.28749992486 4.0913120878 -4.0479667714 
0.50374755256 4.2143802933 -4.0236525716 0.73000447932 4.3146703998 -3.988301509 0.94938943915 4.4138568734 -3.9209792775 
1.1649049221 4.5245782177 -3.8593849555 1.3613181123 4.6701551205 -3.8071429788 1.5518888171 4.8233410947 -3.7550194358 
1.7445140987 4.9527028979 -3.6619548088 1.9520510821 5.0706612644 -3.5883375689 -1.9325266326 2.5204028889 -5.3477890193 
-2.0959306286 2.7087500879 -5.365801979 -2.2633102792 2.8933902522 -5.385602541 -2.4178782198 3.0885612485 -5.4083409222 
-2.5479432722 3.3001525355 -5.43684021 -2.6787178666 3.5102060499 -5.4725547247 -2.8107433098 3.7194501556 -5.5084181681 
-2.9413858908 3.9308341965 -5.5357915725 -3.0679742596 4.1429310387 -5.574396163 -3.2382620752 4.3194711085 -5.6227248669 
-3.4034421657 4.4981947511 -5.679938478 -3.5627383883 4.6713598955 -5.7644283958 -3.7260812147 4.8202216789 -5.8813013633 
-3.8851823596 4.9781299918 -5.9919891692 -4.0318882388 5.1192579924 -6.1371107474 -4.1776034972 5.267674107 -6.2758180666 
-4.3006385034 5.4063912843 -6.4435080543 -4.3993083167 5.5617470301 -6.612708705 -4.4888422999 5.7516090069 -6.7484882896 
-4.5691850661 5.9608949852 -6.8591427934 -4.6250139927 6.1476728782 -7.0152628647 -2.0326142165 2.9638917436 -6.2331597129 
-1.8379661322 2.9856981232 -6.3885193121 -1.6391598511 3.01010672 -6.5381197233 -1.4501474801 3.0433683747 -6.6983320385 
-1.259729815 3.1333976635 -6.8330014113 -1.0836211307 3.1947706356 -6.9994919203 -0.90834424086 3.2595978692 -7.1655504693 
-0.7571583047 3.3005064676 -7.3604075946 -0.60996519126 3.3440873206 -7.5577268704 -0.49002972453 3.3894289805 -7.7723419158 
-0.36913794691 3.4240836293 -7.988407261 -0.25986560906 3.4360709529 -8.212942025 -0.15574965957 3.4430170546 -8.4401239362 
-0.037148734201 3.3980559853 -8.65555913 0.11474077309 3.3523152081 -8.8487879034 0.25761539666 3.307527632 -9.0489900887 
0.37134473956 3.3170620605 -9.2714192487 0.45184428968 3.4066055838 -9.4905123337 0.52755006512 3.4859579188 -9.7151717258 
0.61963079677 3.5558990082 -9.9368232155 0.71155600796 3.6256716727 -10.158220968 -1.9618163346 3.4463146723 -7.10083102 
-2.0309726592 3.3358535308 -7.3141751996 -2.104616748 3.2322445112 -7.5294464686 -2.190188981 3.1546980797 -7.751175907 
-2.2976904794 3.0825969981 -7.9650563921 -2.3991063146 3.0081621014 -8.1810986901 -2.5152911443 2.932724715 -8.3892099249 
-2.6353777226 2.9151416721 -8.607773532 -2.7375207027 2.9036163259 -8.8356638083 -2.8064497636 2.8770738805 -9.0745032588 
-2.8451554793 2.8922226211 -9.3210238122 -2.8645235536 2.9469414014 -9.5641919285 -2.8916055665 2.9711691852 -9.8115369892 
-2.9352780296 2.950425028 -10.056817229 -2.9962578971 2.9862888521 -10.296598883 -3.0614373976 3.0026472426 -10.537397629 
-3.1480640416 3.0173237865 -10.77144981 -3.2331271899 3.0370317538 -11.005705774 -3.288509663 3.025893663 -11.249239601 
-3.320897827 3.0297427036 -11.497102853 -3.3208786737 3.0038642036 -11.745309351 -2.0235998482 3.9580476516 -7.9547512915 
-1.8641792939 4.1284428016 -8.0444763141 -1.703088157 4.2983186837 -8.1321793946 -1.5312487767 4.4435719007 -8.2411414537 
-1.3581433132 4.5892239683 -8.3475368188 -1.1862146091 4.7158958043 -8.4775166889 -1.0186464144 4.8089534404 -8.6380195752 
-0.86800983641 4.8930373924 -8.8189574385 -0.72884017182 4.9763139347 -9.0092120626 -0.59088419752 5.0655988889 -9.1976168027 
-0.45467165021 5.1541236562 -9.3876418208 -0.32760832179 5.2513809607 -9.5797249468 -0.20178605879 5.3528466093 -9.770443274 
-0.086646172337 5.4573309696 -9.9662131005 0.03316044533 5.5673355231 -10.15606929 0.1539268129 5.6761187869 -10.346021089 
0.26904779452 5.7614038547 -10.550895726 0.38126424888 5.8387279751 -10.76048687 0.52095386486 5.9122322598 -10.954352626 
0.65941290954 5.9812120167 -11.150747346 0.83217367741 6.082715558 -11.299200735 -2.0611579752 4.4358891617 -8.8240748816 
-2.2749039929 4.4474172946 -8.9532249573 -2.4981042812 4.4241463158 -9.0634070468 -2.7250734602 4.4038012478 -9.1662227557 
-2.9418091811 4.3703748547 -9.2862573487 -3.1667417949 4.3351481088 -9.3895259095 -3.3871943636 4.2952164277 -9.5004588882 
-3.6033343095 4.2456788972 -9.6159125883 -3.8152564157 4.1965541869 -9.7391026194 -4.0309626123 4.1245192607 -9.8429380958 
-4.2473437712 4.0832631956 -9.9611630135 -4.4655861722 4.0789046166 -10.083028748 -4.6819146229 4.0739012266 -10.208236445 
-4.9124821926 4.0776730423 -10.304799219 -5.1348570088 4.0688567566 -10.418692652 -5.3596202142 4.1049321565 -10.522037062 
[...]
CELL_DATA 451
SCALARS solution%20variable double
LOOKUP_TABLE default
7089.7622436 6855.9182064 6615.4988928 6366.3222279 6167.0337463 5960.3014968 5746.4683162 5524.7036634 5348.1600298 
5164.9313967 4975.31762 4778.5526201 4622.4731176 4460.4076406 4292.6186475 4118.4008735 3980.5318172 3837.3082218 
3688.960377 3534.8380479 3412.9827465 3286.3307015 3155.0848616 3018.6421046 2910.6850528 2798.4107959 2681.9993223 
2560.8843917 2464.8132758 2364.822586 2261.0731429 2153.0224495 2066.9601024 1977.2912055 1884.1601599 1787.0307647 
1709.3150046 1628.2223632 1543.8811893 1455.7370826 1385.1450654 1311.3426246 1234.4372571 1153.8216148 1089.913684 
1022.9640432 953.05130447 879.47330305 822.22524276 762.13824877 699.25202801 632.72310591 582.04571331 528.78583824 
472.94676052 413.45077117 369.17513753 322.68995465 273.99056201 221.52182668 183.35321039 143.80706359 103.41835302 
59.531845062 27.388410017 3.6973371372 0.038877649922 2.8940881933e-06 1.7579330736e-14 4.6505035673e-31 3.2476634206e-64 1.5818981699e-130 
3.6702240183e-263 0 0 0 6238.2615005 6107.3635523 5973.896784 5837.6821792 5698.5196602 
5556.1844749 5410.4227443 5260.9459214 5107.4238155 4949.4757008 4786.658824 4618.4533158 4444.2420264 4263.2830289 
4074.6712398 3877.2833805 3669.6964821 3450.0625009 3215.9061539 623.85890946 5408.6473361 5289.9404104 5168.8314826 
5045.1442317 4918.6805428 4789.2165754 4656.497871 4520.2331943 4380.086683 4235.6677035 4086.5175318 3932.0915562 
3771.7350111 3604.6491103 3429.8424876 3246.0593053 3051.6686701 2844.4863732 2621.4701936 551.18915934 4674.1237227 
4567.2586581 4458.186357 4346.7367654 4232.7178548 4115.911479 3996.0681706 3872.9005225 3746.0746545 3615.1990412 
3479.8096293 3339.3496151 3193.141338 3040.3461698 2879.9054672 2710.4503592 2530.1575441 2336.5054123 2125.8306047 
483.8963789 4025.0499381 3929.4981919 3831.9559633 3732.2627161 3630.2363157 3525.6687987 3418.3210135 3307.9157406 
3194.1287287 3076.5768194 2954.8019139 2828.2488481 2696.2340855 2557.9000896 2412.1464467 2257.5213811 2092.041658 
1912.8729191 1715.7099091 421.95305243 3451.8708077 3366.9524964 3280.2768253 3191.6955836 3101.0398556 3008.1158291 
2912.6994458 2814.5294761 2713.2984131 2608.6402786 2500.1139593 2387.1798878 2269.1664996 2145.2203857 2014.2292621 
1874.697088 1724.5290513 1560.6312958 1378.0824479 365.17053582 2945.2479309 2870.161545 2793.5630389 2715.3189265 
2635.2763605 2553.2590985 2469.0623213 2382.4458773 2293.1253253 2200.7598282 2104.9354291 2005.1413537 1900.7354156 
1790.8916896 1674.5178904 1550.1177839 1415.5459841 1267.5299351 1100.6136716 313.19438853 2496.1530605 2429.9939613 
2362.5779286 2293.7884374 2223.4913288 2151.5310385 2077.7257271 2001.8608888 1923.6808195 1842.8769902 1759.0718342 
1671.795518 1580.4515839 1484.2641533 1382.1929234 1272.788087 1153.923339 1022.2519971 871.9251956 265.48987188 
2095.927737 2037.6727529 1978.4258105 1918.090032 1856.5530043 1793.6833607 1729.3263458 1663.2979654 1595.3771276 
1525.29486 1452.7191505 1377.2330178 1298.3017019 1215.2215333 1127.0361642 1032.3903666 929.25288431 814.32253994 
681.54840645 221.27390172 1736.3241637 1684.721289 1632.3999181 1579.2874983 1525.2986163 1470.3320249 1414.2667656 
1356.9570288 1298.2252095 1237.8523204 1175.5644185 1111.0128067 1043.7441145 973.15309906 898.40224282 818.27948764 
730.92675753 633.23478498 519.22587281 179.26360699 1409.640434 1362.8773958 1315.6594484 1267.9479848 1219.6958001 
1170.8447789 1121.3228316 1071.0397771 1019.8817109 967.70314143 914.3135309 859.46095341 802.80759289 743.88875766 
682.04366316 616.28978205 545.07151371 465.68309019 372.62455068 136.77686837 1109.8878789 1065.3938438 1020.6192733 
975.56437984 930.22652314 884.59952277 838.6737887 792.43470954 745.8602111 698.91699896 651.55466612 603.69624015 
555.22258598 505.94573112 455.56104025 403.55573896 349.01692171 290.16720666 222.93816662 87.258373685 836.56790886 
793.0668346 749.32212469 705.33727363 661.11608065 616.66273723 571.98194777 527.07909999 481.96051211 436.63380263 
391.10846385 345.39679121 299.51547288 253.48850451 207.35305803 161.17298069 115.07674337 69.404830977 25.774092344 
2.4011280024 591.06292481 548.72715357 506.17793117 463.42121657 420.46410425 377.31530413 333.98591553 290.49074427 
246.85070338 203.09760563 159.28499424 115.51726298 72.050224577 29.806805939 3.5634443548 0.030871359328 1.6683356703e-06 
4.2653014837e-15 2.7330740467e-32 1.1772006862e-66 373.37057171 332.47016381 291.40859246 250.20240424 208.87589399 167.46767764 
126.04609597 84.753354335 44.004994046 9.8975699779 0.29813334358 0.00017737235383 5.0278203622e-11 3.8099279327e-24 2.1797732984e-50 
7.1287625451e-103 7.5015991848e-208 0 0 0 183.65717334 144.70648261 105.82917549 67.207435739 
29.385062024 3.9915380811 0.043227378478 3.4788644562e-06 1.8873184053e-14 5.3562627068e-31 4.308048569e-64 2.7816034505e-130 1.1259134246e-262 
0 0 0 0 0 0 0 27.394883012 3.6992091403 
0.038910216843 2.8986511132e-06 1.3225653107e-14 2.632256814e-31 1.0404650321e-64 1.6236419335e-131 3.8663797854e-265 0 0 
0 0 0 0 0 0 0 0 1.7579330736e-14 
4.6505035673e-31 3.2476634206e-64 1.5818981699e-130 3.6702240183e-263 0 0 0 0 0 
0 0 7171.88382 7253.2195202 7333.9506079 7414.0985627 7493.6837027 7572.7252635 7651.2414714 
7729.2496094 7806.7660787 7883.8064548 7960.385539 8036.5174063 8112.2154496 8187.4924202 8262.3604658 8334.4739934 
8406.3452393 8477.8785761 8549.0828607 8619.9665553 8690.5377479 8760.8041717 8830.7732239 8887.0642996 8943.3188248 
8999.4789417 9055.5464852 9111.5231843 9167.4106665 9223.2104623 9278.9240092 9311.1192911 9343.4695722 9375.9548172 
9408.5735643 9441.324309 9474.2055056 9507.215569 9540.3528767 9540.3442518 8404.1100148 9659.3672658 10719.458092 
11566.528748 
