# vtk DataFile Version 5.1
vtk output
ASCII
DATASET UNSTRUCTURED_GRID
POINTS 474 double
0 0 -3 -0.11344901018 0.17758382911 -3.1345113591 -0.25315847539 0.33878440002 -3.2648786912 
-0.38126193464 0.50363826191 -3.4024021726 -0.5126230829 0.66576812132 -3.5400907975 -0.65843420624 0.83063257984 -3.6586607204 
-0.82297351213 0.96639713451 -3.7890248355 -0.97532665543 1.1205572503 -3.9136168835 -1.1248934303 1.2712178784 -4.0456439831 
-1.260480867 1.4416481412 -4.1684021702 -1.3678821889 1.6074581306 -4.3216079256 -1.4660695894 1.784059061 -4.4688198332 
-1.5694943891 1.9404801104 -4.6341551474 -1.6843141616 2.0801145574 -4.8068358964 -1.7920938126 2.214324268 -4.9881403376 
-1.8953148049 2.3800598251 -5.1442721788 -1.9325266326 2.5204028889 -5.3477890193 -1.973129178 2.6634701459 -5.548744719 
-1.9865147688 2.7616205381 -5.7782819197 -2.0072616269 2.8605132642 -6.0069515429 -2.0326142165 2.9638917436 -6.2331597129 
-1.9920842053 3.0592208557 -6.4606892244 -1.9658829099 3.1812169213 -6.6773235986 -1.95489032 3.3115244098 -6.8903942944 
-1.9618163346 3.4463146723 -7.10083102 -1.9595558315 3.5807523934 -7.3115948434 -1.9591600912 3.7034011527 -7.5294414069 
-1.9922335507 3.8261433401 -7.744709848 -2.0235998482 3.9580476516 -7.9547512915 -2.053410198 4.0821397433 -8.16972221 
-2.0922570198 4.2101350542 -8.380928566 -2.0673262565 4.3390293584 -8.5936836256 -2.0611579752 4.4358891617 -8.8240748816 
-2.0457609566 4.5389463916 -9.0513239502 -2.0376118219 4.6474567449 -9.2763997037 -2.0620327306 4.7344755807 -9.5094905474 
-2.0678249667 4.7919692102 -9.7527207523 -2.0538188065 4.7894724803 -10.002315612 -2.061454029 4.7954964511 -10.25212637 
-2.0748719743 4.7792135014 -10.501234428 -2.0879807121 4.7450832286 -10.748546549 -2.1011430636 4.7103243177 -10.995768253 
-2.1002295418 4.7008537725 -11.245587136 -2.1048346881 4.6894878057 -11.495286169 -2.0641472069 4.6880886783 -11.741949039 
-2.0210511199 4.6768675797 -11.987950694 -1.9835084387 4.6483785121 -12.233468351 -1.9506827239 4.6230643942 -12.480007736 
-1.9004712217 4.6381689642 -12.724447211 -1.8375331244 4.6537107888 -12.96589544 -1.7745908329 4.6759472614 -13.206818265 
-1.7324654219 4.637703043 -13.450257845 -1.6671038275 4.5609504363 -13.679030438 -1.598399743 4.4811403079 -13.905768376 
-1.5362405788 4.3949975328 -14.132077148 -1.4802902991 4.3079524624 -14.359657292 -1.4132617365 4.2082396067 -14.578893508 
-1.3346237404 4.1025622853 -14.791374964 -1.2639046148 4.0215870271 -15.017077895 -1.1811068059 3.9440623254 -15.239865784 
-1.0986307142 3.8389919159 -15.45118995 -0.9637992344 3.7108445705 -15.618219079 -0.83607035007 3.5887696699 -15.795089231 
-0.67316557472 3.4694079904 -15.942448736 -0.49469270494 3.3540019539 -16.074087946 -0.32610371771 3.2396122859 -16.218976721 
-0.14820477506 3.1356714575 -16.360568636 0.012364935668 3.0233302117 -16.515800116 0.1549159304 2.9000749565 -16.680078405 
0.27000396814 2.7652117596 -16.856335778 0.3829086188 2.6314831379 -17.034855232 0.49747072388 2.4976228367 -17.212216287 
0.60083379182 2.4004242314 -17.418052405 0.66797056282 2.2936634265 -17.633910656 0.75017747883 2.1834571348 -17.842708636 
0.82913521304 2.0737203209 -18.053002496 0.84139766799 2.0604437881 -18.08156333 -0.5126230829 0.66576812132 -3.5400907975 
-0.52277406038 0.77956108233 -3.7624601292 -0.53449030145 0.89788545023 -3.982373916 -0.53515452505 1.0082199251 -4.2067081811 
-0.53644590475 1.1144897642 -4.4329935178 -0.53696454607 1.2507070137 -4.6426231721 -0.51878168185 1.3625180934 -4.8654856093 
-0.50273855675 1.4613674127 -5.0945520412 -0.49082816941 1.5488159746 -5.328455636 -0.53649707025 1.6336061495 -5.5591610277 
-0.58531137867 1.7180366746 -5.7893536638 -0.67092791921 1.7968155302 -6.0106310912 -0.74962718774 1.8695191762 -6.2365085027 
-0.83361798078 1.9305568324 -6.4639287111 -0.91700232593 1.9931029055 -6.6911621587 -0.9753928223 2.0369035191 -6.930268947 
-1.0475750197 2.0677300162 -7.1676282894 -1.1009443958 2.0963864931 -7.4101783173 -1.0913733021 2.1254249614 -7.6583015962 
-1.0949643175 2.1422303757 -7.9077102622 -1.0664266342 2.165504346 -8.1548653099 -1.1248934303 1.2712178784 -4.0456439831 
-1.3701105494 1.2938911888 -4.0025802454 -1.6157087444 1.3095406912 -3.9585732041 -1.8617989566 1.2971902892 -3.9162993943 
-2.1048102068 1.2871864009 -3.8584594899 -2.3536918581 1.2700404026 -3.8422133105 -2.6027259385 1.2509731012 -3.853097466 
-2.8484396668 1.2518422052 -3.8991844311 -3.0916583036 1.2465957369 -3.9567793032 -3.3338077351 1.2274596438 -4.0159186538 
-3.5641759617 1.2403219499 -4.1121737381 -3.7912733809 1.2235452575 -4.2153498243 -4.0204382622 1.2355273717 -4.3145460244 
-4.2478450942 1.2493184055 -4.4174826076 -4.4834828557 1.2739945955 -4.4972693924 -4.7217834282 1.3027450896 -4.567171082 
-4.9607669071 1.3311838138 -4.6348330046 -5.199558466 1.3700473821 -4.6978267701 -5.4302756926 1.4046385181 -4.7876767264 
-5.6506628044 1.4263130494 -4.9036928272 -5.8669179291 1.4821841882 -5.0156676629 -1.5694943891 1.9404801104 -4.6341551474 
-1.4895185985 2.1771164887 -4.6238063594 -1.381831314 2.3982210442 -4.5789039731 -1.2633369749 2.613011121 -4.5306928281 
-1.1462127147 2.8284302862 -4.4819435621 -1.0110186488 3.0229077887 -4.4019369025 -0.87475765502 3.2163027526 -4.3211202613 
-0.70885179817 3.3900448113 -4.2519180669 -0.54644443097 3.5633239055 -4.1738270778 -0.35505468441 3.7110359584 -4.1101787129 
-0.1483501848 3.8487343787 -4.0816761715 0.067808343634 3.9732436541 -4.0651555501 0.28749992486 4.0913120878 -4.0479667714 
0.50374755256 4.2143802933 -4.0236525716 0.73000447932 4.3146703998 -3.988301509 0.94938943915 4.4138568734 -3.9209792775 
1.1649049221 4.5245782177 -3.8593849555 1.3613181123 4.6701551205 -3.8071429788 1.5518888171 4.8233410947 -3.7550194358 
1.7445140987 4.9527028979 -3.6619548088 1.9520510821 5.0706612644 -3.5883375689 -1.9325266326 2.5204028889 -5.3477890193 
-2.0959306286 2.7087500879 -5.365801979 -2.2633102792 2.8933902522 -5.385602541 -2.4178782198 3.0885612485 -5.4083409222 
-2.5479432722 3.3001525355 -5.43684021 -2.6787178666 3.5102060499 -5.4725547247 -2.8107433098 3.7194501556 -5.5084181681 
-2.9413858908 3.9308341965 -5.5357915725 -3.0679742596 4.1429310387 -5.574396163 -3.2382620752 4.3194711085 -5.6227248669 
-3.4034421657 4.4981947511 -5.679938478 -3.5627383883 4.6713598955 -5.7644283958 -3.7260812147 4.8202216789 -5.8813013633 
-3.8851823596 4.9781299918 -5.9919891692 -4.0318882388 5.1192579924 -6.1371107474 -4.1776034972 5.267674107 -6.2758180666 
-4.3006385034 5.4063912843 -6.4435080543 -4.3993083167 5.5617470301 -6.612708705 -4.4888422999 5.7516090069 -6.7484882896 
-4.5691850661 5.9608949852 -6.8591427934 -4.6250139927 6.1476728782 -7.0152628647 -2.0326142165 2.9638917436 -6.2331597129 
-1.8379661322 2.9856981232 -6.3885193121 -1.6391598511 3.01010672 -6.5381197233 -1.4501474801 3.0433683747 -6.6983320385 
-1.259729815 3.1333976635 -6.8330014113 -1.0836211307 3.1947706356 -6.9994919203 -0.90834424086 3.2595978692 -7.1655504693 
-0.7571583047 3.3005064676 -7.3604075946 -0.60996519126 3.3440873206 -7.5577268704 -0.49002972453 3.3894289805 -7.7723419158 
-0.36913794691 3.4240836293 -7.988407261 -0.25986560906 3.4360709529 -8.212942025 -0.15574965957 3.4430170546 -8.4401239362 
-0.037148734201 3.3980559853 -8.65555913 0.11474077309 3.3523152081 -8.8487879034 0.25761539666 3.307527632 -9.0489900887 
0.37134473956 3.3170620605 -9.2714192487 0.45184428968 3.4066055838 -9.4905123337 0.52755006512 3.4859579188 -9.7151717258 
0.61963079677 3.5558990082 -9.9368232155 0.71155600796 3.6256716727 -10.158220968 -1.9618163346 3.4463146723 -7.10083102 
-2.0309726592 3.3358535308 -7.3141751996 -2.104616748 3.2322445112 -7.5294464686 -2.190188981 3.1546980797 -7.751175907 
-2.2976904794 3.0825969981 -7.9650563921 -2.3991063146 3.0081621014 -8.1810986901 -2.5152911443 2.932724715 -8.3892099249 
-2.6353777226 2.9151416721 -8.607773532 -2.7375207027 2.9036163259 -8.8356638083 -2.8064497636 2.8770738805 -9.0745032588 
-2.8451554793 2.8922226211 -9.3210238122 -2.8645235536 2.9469414014 -9.5641919285 -2.8916055665 2.9711691852 -9.8115369892 
-2.9352780296 2.950425028 -10.056817229 -2.9962578971 2.9862888521 -10.296598883 -3.0614373976 3.0026472426 -10.537397629 
-3.1480640416 3.0173237865 -10.77144981 -3.2331271899 3.0370317538 -11.005705774 -3.288509663 3.025893663 -11.249239601 
-3.320897827 3.0297427036 -11.497102853 -3.3208786737 3.0038642036 -11.745309351 -2.0235998482 3.9580476516 -7.9547512915 
-1.8641792939 4.1284428016 -8.0444763141 -1.703088157 4.2983186837 -8.1321793946 -1.5312487767 4.4435719007 -8.2411414537 
-1.3581433132 4.5892239683 -8.3475368188 -1.1862146091 4.7158958043 -8.4775166889 -1.0186464144 4.8089534404 -8.6380195752 
-0.86800983641 4.8930373924 -8.8189574385 -0.72884017182 4.9763139347 -9.0092120626 -0.59088419752 5.0655988889 -9.1976168027 
-0.45467165021 5.1541236562 -9.3876418208 -0.32760832179 5.2513809607 -9.5797249468 -0.20178605879 5.3528466093 -9.770443274 
-0.086646172337 5.4573309696 -9.9662131005 0.03316044533 5.5673355231 -10.15606929 0.1539268129 5.6761187869 -10.346021089 
0.26904779452 5.7614038547 -10.550895726 0.38126424888 5.8387279751 -10.76048687 0.52095386486 5.9122322598 -10.954352626 
0.65941290954 5.9812120167 -11.150747346 0.83217367741 6.082715558 -11.299200735 -2.0611579752 4.4358891617 -8.8240748816 
-2.2749039929 4.4474172946 -8.9532249573 -2.4981042812 4.4241463158 -9.0634070468 -2.7250734602 4.4038012478 -9.1662227557 
-2.9418091811 4.3703748547 -9.2862573487 -3.1667417949 4.3351481088 -9.3895259095 -3.3871943636 4.2952164277 -9.5004588882 
-3.6033343095 4.2456788972 -9.6159125883 -3.8152564157 4.1965541869 -9.7391026194 -4.0309626123 4.1245192607 -9.8429380958 
-4.2473437712 4.0832631956 -9.9611630135 -4.4655861722 4.0789046166 -10.083028748 -4.6819146229 4.0739012266 -10.208236445 
-4.9124821926 4.0776730423 -10.304799219 -5.1348570088 4.0688567566 -10.418692652 -5.3596202142 4.1049321565 -10.522037062 
[...]
CELL_DATA 451
SCALARS solution%20variable double
LOOKUP_TABLE default
7156.913115 6922.0242556 6680.5330168 6430.2604743 6230.0689627 6022.408753 5807.6236403 5584.8861247 5407.5714801 
5223.5512061 5033.1257657 4835.532986 4678.8326427 4516.1316907 4347.6928165 4172.8159302 4034.4953882 3890.8135872 
3742.0006397 3587.4132714 3465.2960346 3338.3854529 3206.8838725 3070.1976085 2962.1886031 2849.8784935 2733.4462488 
2612.3385235 2516.4430643 2416.6598672 2313.148425 2205.3840825 2119.7302302 2030.520636 1937.8984601 1841.3527126 
1764.2403225 1683.8221711 1600.2266324 1512.9359103 1442.9814076 1369.8986071 1293.7988757 1214.1283786 1150.5936841 
1084.0808175 1014.6763525 941.75283475 884.55795254 824.56367825 761.8214692 695.5865051 644.68161319 591.1958038 
535.14564269 475.60729278 430.88126498 383.87879615 334.59085251 281.76054931 243.02359017 202.52903849 160.34374764 
114.2878941 80.487206072 45.435412528 13.251171674 0.67280736046 0.0014094144873 3.4098633167e-09 1.773689561e-20 4.7253741469e-43 
3.3524533244e-88 1.678778261e-178 0 0 6301.7107168 6170.2974597 6036.2876259 5899.501771 5759.7394398 
5616.7755756 5470.3560996 5320.1924131 5165.9544836 5007.2620414 4843.6732136 4674.6696222 4499.6364984 4317.835613 
4128.3675679 3930.1178469 3721.6771533 3501.2192577 3266.3048577 629.68879999 5468.3250987 5349.0828854 5227.4064547 
5103.1187369 4976.020883 4845.88835 4712.4660342 4575.4621488 4434.5404292 4289.310069 4139.3125239 3984.0039028 
3822.730994 3654.6978703 3478.9181041 3294.1442043 3098.759402 2890.6038694 2666.6790893 556.98852059 4730.5955838 
4623.186862 4513.5338576 4401.4654005 4286.7883159 4169.283291 4048.699686 3924.7489414 3797.0960848 3665.3486237 
3529.0417666 3387.6183709 3240.4011161 3086.5528676 2925.0184576 2754.4359762 2572.9954392 2378.2007588 2166.4392849 
489.68424053 4078.9660443 3982.8752977 3884.7516934 3784.4331596 3681.7359452 3576.4503876 3468.3355552 3357.1123765 
3242.4546954 3123.977434 3001.2206297 2873.6274393 2740.5130642 2601.0195481 2454.0477008 2298.1501751 2131.3545897 
1950.8510103 1752.3897418 427.76836353 3503.972295 3418.5347831 3331.2914502 3242.0920565 3150.7655184 3057.1157028 
2960.9160633 2861.9027028 2759.7652584 2654.13471 2544.5667381 2430.5184686 2311.3150764 2186.1002531 2053.7598453 
1912.7984217 1761.1275506 1595.6736084 1411.5716238 371.07891506 2996.3752965 2920.8091024 2843.6750731 2764.8370688 
2684.1393834 2601.4026815 2516.4187845 2428.9438767 2338.6895067 2245.3104361 2148.3878752 2047.4057594 1941.7161751 
1830.4871686 1712.6205391 1586.6153633 1450.3257414 1300.4910726 1131.7061684 319.29670027 2547.2561606 2480.6871325 
2412.7965286 2343.4642899 2272.5524345 2199.9012415 2125.3243257 2048.6021802 1969.4735615 1887.6237626 1802.6682798 
1714.1294431 1621.4019085 1523.6997392 1419.9714206 1308.7552795 1187.9145386 1054.1007796 901.50049114 271.94274062 
2148.0745646 2089.5379933 2029.9339428 1969.1605607 1907.100038 1843.6151251 1778.5446152 1711.6973905 1642.8444312 
1571.7078621 1497.9455702 1421.1289851 1340.7098891 1255.9688031 1165.9306476 1069.2180474 963.77452086 846.27786781 
710.68267619 228.33662243 1790.7022794 1739.0837155 1686.6600774 1633.3510329 1579.0626609 1523.6843784 1467.0849389 
1409.1071333 1349.5606407 1288.2121694 1224.7715156 1158.8712585 1090.0361275 1017.6347797 940.79978196 858.28132784 
768.172558 667.30445039 549.64551078 187.46540789 1467.4736994 1421.2859349 1374.5567536 1327.2343305 1279.2565816 
1230.5486234 1181.0194378 1130.5574236 1079.0243529 1026.2469797 972.00509004 916.01205429 857.88759203 797.11636537 
732.97574167 664.40523322 589.74690869 506.15474395 407.93802395 147.43933814 1171.6745305 1128.659512 1085.3211311 
1041.6466882 997.61929055 953.21623367 908.40432697 863.13937373 817.3620411 770.99190966 723.91871403 675.98910374 
626.98596528 576.59474852 524.34557593 469.5062584 410.8637997 346.20792651 270.7856309 103.88799933 900.40136614 
858.49380663 816.33547908 773.92927957 731.27827967 688.38576887 645.25530822 601.89079776 558.29655917 514.47743092 
470.43885944 426.18693088 381.7281751 337.06864289 292.21073675 247.14288022 201.8045259 155.95425002 108.55732144 
42.325600501 655.28764427 614.37102575 573.22953022 531.86746398 490.28971703 448.50197554 406.51103807 364.32530417 
321.95556361 279.41634277 236.72836973 193.92353685 151.05632969 108.23595082 65.749347646 24.885343949 2.3743201421 
0.013207110621 2.995920635e-07 1.4372581831e-16 436.63595059 396.93880734 357.05541936 316.99527102 276.77072629 236.39887936 
195.90516703 155.33120559 114.75427104 74.345324161 34.600064413 5.6096627077 0.086961357365 1.4226783963e-05 3.1669690297e-13 
1.5085781784e-28 3.4174211824e-59 1.7508250667e-120 4.4747462113e-243 0 244.54877123 206.39736019 168.15643714 129.87797086 
91.662812881 53.788996277 17.980981857 1.2560549813 0.0037209307006 2.3869722163e-08 8.6999638411e-19 1.1369188843e-39 1.9406964675e-81 
5.627642022e-165 0 0 0 0 0 0 80.503829822 45.459827799 
13.268318342 0.67544552682 0.0010659111664 1.9496905768e-09 5.7983605756e-21 5.0499879991e-44 3.8288414928e-90 2.1895752876e-182 0 
0 0 0 0 0 0 0 0 0.0014094144873 
3.4098633167e-09 1.773689561e-20 4.7253741469e-43 3.3524533244e-88 1.678778261e-178 0 0 0 0 
0 0 7239.400696 7321.0722692 7402.1097591 7482.5353641 7562.3700961 7641.6338623 7720.3455387 
7798.5230385 7876.1833747 7953.3427169 8030.0164444 8106.2191948 8181.964909 8257.2668729 8332.1377554 8404.248068 
8476.0934626 8547.5796917 8618.7160945 8689.5116051 8759.9747743 8830.1137891 8899.9364916 8956.1626165 9012.3302693 
9068.3826116 9124.3218926 9180.1502517 9235.8697233 9291.4822411 9346.9896421 9379.126936 9411.3969615 9443.7801565 
9476.2753357 9508.8812765 9541.5967198 9574.420372 9607.350906 9607.3432712 8472.9553035 9722.4537736 10777.623221 
11620.302338 
