# vtk DataFile Version 5.1
vtk output
ASCII
DATASET UNSTRUCTURED_GRID
POINTS 474 double
0 0 -3 -0.11344901018 0.17758382911 -3.1345113591 -0.25315847539 0.33878440002 -3.2648786912 
-0.38126193464 0.50363826191 -3.4024021726 -0.5126230829 0.66576812132 -3.5400907975 -0.65843420624 0.83063257984 -3.6586607204 
-0.82297351213 0.96639713451 -3.7890248355 -0.97532665543 1.1205572503 -3.9136168835 -1.1248934303 1.2712178784 -4.0456439831 
-1.260480867 1.4416481412 -4.1684021702 -1.3678821889 1.6074581306 -4.3216079256 -1.4660695894 1.784059061 -4.4688198332 
-1.5694943891 1.9404801104 -4.6341551474 -1.6843141616 2.0801145574 -4.8068358964 -1.7920938126 2.214324268 -4.9881403376 
-1.8953148049 2.3800598251 -5.1442721788 -1.9325266326 2.5204028889 -5.3477890193 -1.973129178 2.6634701459 -5.548744719 
-1.9865147688 2.7616205381 -5.7782819197 -2.0072616269 2.8605132642 -6.0069515429 -2.0326142165 2.9638917436 -6.2331597129 
-1.9920842053 3.0592208557 -6.4606892244 -1.9658829099 3.1812169213 -6.6773235986 -1.95489032 3.3115244098 -6.8903942944 
-1.9618163346 3.4463146723 -7.10083102 -1.9595558315 3.5807523934 -7.3115948434 -1.9591600912 3.7034011527 -7.5294414069 
-1.9922335507 3.8261433401 -7.744709848 -2.0235998482 3.9580476516 -7.9547512915 -2.053410198 4.0821397433 -8.16972221 
-2.0922570198 4.2101350542 -8.380928566 -2.0673262565 4.3390293584 -8.5936836256 -2.0611579752 4.4358891617 -8.8240748816 
-2.0457609566 4.5389463916 -9.0513239502 -2.0376118219 4.6474567449 -9.2763997037 -2.0620327306 4.7344755807 -9.5094905474 
-2.0678249667 4.7919692102 -9.7527207523 -2.0538188065 4.7894724803 -10.002315612 -2.061454029 4.7954964511 -10.25212637 
-2.0748719743 4.7792135014 -10.501234428 -2.0879807121 4.7450832286 -10.748546549 -2.1011430636 4.7103243177 -10.995768253 
-2.1002295418 4.7008537725 -11.245587136 -2.1048346881 4.6894878057 -11.495286169 -2.0641472069 4.6880886783 -11.741949039 
-2.0210511199 4.6768675797 -11.987950694 -1.9835084387 4.6483785121 -12.233468351 -1.9506827239 4.6230643942 -12.480007736 
-1.9004712217 4.6381689642 -12.724447211 -1.8375331244 4.6537107888 -12.96589544 -1.7745908329 4.6759472614 -13.206818265 
-1.7324654219 4.637703043 -13.450257845 -1.6671038275 4.5609504363 -13.679030438 -1.598399743 4.4811403079 -13.905768376 
-1.5362405788 4.3949975328 -14.132077148 -1.4802902991 4.3079524624 -14.359657292 -1.4132617365 4.2082396067 -14.578893508 
-1.3346237404 4.1025622853 -14.791374964 -1.2639046148 4.0215870271 -15.017077895 -1.1811068059 3.9440623254 -15.239865784 
-1.0986307142 3.8389919159 -15.45118995 -0.9637992344 3.7108445705 -15.618219079 -0.83607035007 3.5887696699 -15.795089231 
-0.67316557472 3.4694079904 -15.942448736 -0.49469270494 3.3540019539 -16.074087946 -0.32610371771 3.2396122859 -16.218976721 
-0.14820477506 3.1356714575 -16.360568636 0.012364935668 3.0233302117 -16.515800116 0.1549159304 2.9000749565 -16.680078405 
0.27000396814 2.7652117596 -16.856335778 0.3829086188 2.6314831379 -17.034855232 0.49747072388 2.4976228367 -17.212216287 
0.60083379182 2.4004242314 -17.418052405 0.66797056282 2.2936634265 -17.633910656 0.75017747883 2.1834571348 -17.842708636 
0.82913521304 2.0737203209 -18.053002496 0.84139766799 2.0604437881 -18.08156333 -0.5126230829 0.66576812132 -3.5400907975 
-0.52277406038 0.77956108233 -3.7624601292 -0.53449030145 0.89788545023 -3.982373916 -0.53515452505 1.0082199251 -4.2067081811 
-0.53644590475 1.1144897642 -4.4329935178 -0.53696454607 1.2507070137 -4.6426231721 -0.51878168185 1.3625180934 -4.8654856093 
-0.50273855675 1.4613674127 -5.0945520412 -0.49082816941 1.5488159746 -5.328455636 -0.53649707025 1.6336061495 -5.5591610277 
-0.58531137867 1.7180366746 -5.7893536638 -0.67092791921 1.7968155302 -6.0106310912 -0.74962718774 1.8695191762 -6.2365085027 
-0.83361798078 1.9305568324 -6.4639287111 -0.91700232593 1.9931029055 -6.6911621587 -0.9753928223 2.0369035191 -6.930268947 
-1.0475750197 2.0677300162 -7.1676282894 -1.1009443958 2.0963864931 -7.4101783173 -1.0913733021 2.1254249614 -7.6583015962 
-1.0949643175 2.1422303757 -7.9077102622 -1.0664266342 2.165504346 -8.1548653099 -1.1248934303 1.2712178784 -4.0456439831 
-1.3701105494 1.2938911888 -4.0025802454 -1.6157087444 1.3095406912 -3.9585732041 -1.8617989566 1.2971902892 -3.9162993943 
-2.1048102068 1.2871864009 -3.8584594899 -2.3536918581 1.2700404026 -3.8422133105 -2.6027259385 1.2509731012 -3.853097466 
-2.8484396668 1.2518422052 -3.8991844311 -3.0916583036 1.2465957369 -3.9567793032 -3.3338077351 1.2274596438 -4.0159186538 
-3.5641759617 1.2403219499 -4.1121737381 -3.7912733809 1.2235452575 -4.2153498243 -4.0204382622 1.2355273717 -4.3145460244 
-4.2478450942 1.2493184055 -4.4174826076 -4.4834828557 1.2739945955 -4.4972693924 -4.7217834282 1.3027450896 -4.567171082 
-4.9607669071 1.3311838138 -4.6348330046 -5.199558466 1.3700473821 -4.6978267701 -5.4302756926 1.4046385181 -4.7876767264 
-5.6506628044 1.4263130494 -4.9036928272 -5.8669179291 1.4821841882 -5.0156676629 -1.5694943891 1.9404801104 -4.6341551474 
-1.4895185985 2.1771164887 -4.6238063594 -1.381831314 2.3982210442 -4.5789039731 -1.2633369749 2.613011121 -4.5306928281 
-1.1462127147 2.8284302862 -4.4819435621 -1.0110186488 3.0229077887 -4.4019369025 -0.87475765502 3.2163027526 -4.3211202613 
-0.70885179817 3.3900448113 -4.2519180669 -0.54644443097 3.5633239055 -4.1738270778 -0.35505468441 3.7110359584 -4.1101787129 
-0.1483501848 3.8487343787 -4.0816761715 0.067808343634 3.9732436541 -4.0651555501 0.28749992486 4.0913120878 -4.0479667714 
0.50374755256 4.2143802933 -4.0236525716 0.73000447932 4.3146703998 -3.988301509 0.94938943915 4.4138568734 -3.9209792775 
1.1649049221 4.5245782177 -3.8593849555 1.3613181123 4.6701551205 -3.8071429788 1.5518888171 4.8233410947 -3.7550194358 
1.7445140987 4.9527028979 -3.6619548088 1.9520510821 5.0706612644 -3.5883375689 -1.9325266326 2.5204028889 -5.3477890193 
-2.0959306286 2.7087500879 -5.365801979 -2.2633102792 2.8933902522 -5.385602541 -2.4178782198 3.0885612485 -5.4083409222 
-2.5479432722 3.3001525355 -5.43684021 -2.6787178666 3.5102060499 -5.4725547247 -2.8107433098 3.7194501556 -5.5084181681 
-2.9413858908 3.9308341965 -5.5357915725 -3.0679742596 4.1429310387 -5.574396163 -3.2382620752 4.3194711085 -5.6227248669 
-3.4034421657 4.4981947511 -5.679938478 -3.5627383883 4.6713598955 -5.7644283958 -3.7260812147 4.8202216789 -5.8813013633 
-3.8851823596 4.9781299918 -5.9919891692 -4.0318882388 5.1192579924 -6.1371107474 -4.1776034972 5.267674107 -6.2758180666 
-4.3006385034 5.4063912843 -6.4435080543 -4.3993083167 5.5617470301 -6.612708705 -4.4888422999 5.7516090069 -6.7484882896 
-4.5691850661 5.9608949852 -6.8591427934 -4.6250139927 6.1476728782 -7.0152628647 -2.0326142165 2.9638917436 -6.2331597129 
-1.8379661322 2.9856981232 -6.3885193121 -1.6391598511 3.01010672 -6.5381197233 -1.4501474801 3.0433683747 -6.6983320385 
-1.259729815 3.1333976635 -6.8330014113 -1.0836211307 3.1947706356 -6.9994919203 -0.90834424086 3.2595978692 -7.1655504693 
-0.7571583047 3.3005064676 -7.3604075946 -0.60996519126 3.3440873206 -7.5577268704 -0.49002972453 3.3894289805 -7.7723419158 
-0.36913794691 3.4240836293 -7.988407261 -0.25986560906 3.4360709529 -8.212942025 -0.15574965957 3.4430170546 -8.4401239362 
-0.037148734201 3.3980559853 -8.65555913 0.11474077309 3.3523152081 -8.8487879034 0.25761539666 3.307527632 -9.0489900887 
0.37134473956 3.3170620605 -9.2714192487 0.45184428968 3.4066055838 -9.4905123337 0.52755006512 3.4859579188 -9.7151717258 
0.61963079677 3.5558990082 -9.9368232155 0.71155600796 3.6256716727 -10.158220968 -1.9618163346 3.4463146723 -7.10083102 
-2.0309726592 3.3358535308 -7.3141751996 -2.104616748 3.2322445112 -7.5294464686 -2.190188981 3.1546980797 -7.751175907 
-2.2976904794 3.0825969981 -7.9650563921 -2.3991063146 3.0081621014 -8.1810986901 -2.5152911443 2.932724715 -8.3892099249 
-2.6353777226 2.9151416721 -8.607773532 -2.7375207027 2.9036163259 -8.8356638083 -2.8064497636 2.8770738805 -9.0745032588 
-2.8451554793 2.8922226211 -9.3210238122 -2.8645235536 2.9469414014 -9.5641919285 -2.8916055665 2.9711691852 -9.8115369892 
-2.9352780296 2.950425028 -10.056817229 -2.9962578971 2.9862888521 -10.296598883 -3.0614373976 3.0026472426 -10.537397629 
-3.1480640416 3.0173237865 -10.77144981 -3.2331271899 3.0370317538 -11.005705774 -3.288509663 3.025893663 -11.249239601 
-3.320897827 3.0297427036 -11.497102853 -3.3208786737 3.0038642036 -11.745309351 -2.0235998482 3.9580476516 -7.9547512915 
-1.8641792939 4.1284428016 -8.0444763141 -1.703088157 4.2983186837 -8.1321793946 -1.5312487767 4.4435719007 -8.2411414537 
-1.3581433132 4.5892239683 -8.3475368188 -1.1862146091 4.7158958043 -8.4775166889 -1.0186464144 4.8089534404 -8.6380195752 
-0.86800983641 4.8930373924 -8.8189574385 -0.72884017182 4.9763139347 -9.0092120626 -0.59088419752 5.0655988889 -9.1976168027 
-0.45467165021 5.1541236562 -9.3876418208 -0.32760832179 5.2513809607 -9.5797249468 -0.20178605879 5.3528466093 -9.770443274 
-0.086646172337 5.4573309696 -9.9662131005 0.03316044533 5.5673355231 -10.15606929 0.1539268129 5.6761187869 -10.346021089 
0.26904779452 5.7614038547 -10.550895726 0.38126424888 5.8387279751 -10.76048687 0.52095386486 5.9122322598 -10.954352626 
0.65941290954 5.9812120167 -11.150747346 0.83217367741 6.082715558 -11.299200735 -2.0611579752 4.4358891617 -8.8240748816 
-2.2749039929 4.4474172946 -8.9532249573 -2.4981042812 4.4241463158 -9.0634070468 -2.7250734602 4.4038012478 -9.1662227557 
-2.9418091811 4.3703748547 -9.2862573487 -3.1667417949 4.3351481088 -9.3895259095 -3.3871943636 4.2952164277 -9.5004588882 
-3.6033343095 4.2456788972 -9.6159125883 -3.8152564157 4.1965541869 -9.7391026194 -4.0309626123 4.1245192607 -9.8429380958 
-4.2473437712 4.0832631956 -9.9611630135 -4.4655861722 4.0789046166 -10.083028748 -4.6819146229 4.0739012266 -10.208236445 
-4.9124821926 4.0776730423 -10.304799219 -5.1348570088 4.0688567566 -10.418692652 -5.3596202142 4.1049321565 -10.522037062 
[...]
CELL_DATA 451
SCALARS solution%20variable double
LOOKUP_TABLE default
7267.7605435 7031.1387392 6787.8695791 6535.7788804 6334.0843147 6124.8790401 5908.5084654 5684.1497812 5505.5446039 
5320.1984222 5128.4127428 4929.4313827 4771.6826109 4607.9071886 4438.3682296 4262.3735477 4123.2783251 3978.8081826 
3829.192995 3673.800082 3551.2160138 3423.8408121 3291.8758705 3154.7418029 3046.6100302 2934.1993206 2817.6869453 
2696.5389578 2600.900312 2501.4208926 2398.2578035 2290.9129361 2205.921257 2117.4512005 2025.6431785 1930.0231176 
1853.9652078 1774.7143264 1692.3968713 1606.5476824 1537.8991416 1466.267281 1391.7653634 1313.9164505 1251.5136528 
1186.2762911 1118.3012251 1047.0704269 990.43327319 931.1030355 869.14860662 803.97085968 753.07879772 699.65634472 
643.74162295 584.61868584 539.41366848 491.88927469 442.05128851 388.99299336 349.36023864 307.71409701 264.04643569 
217.07699567 182.82735359 147.18954537 110.40872163 70.17704564 40.637041625 11.59343764 0.55198893797 0.00074761471868 
9.8424209547e-10 1.4867760717e-21 3.3209927298e-45 5.1401444485e-92 6406.4281826 6274.1715774 6139.273638 6001.5542772 5860.8124848 
5716.8227744 5569.3308152 5418.0480065 5262.6446654 5102.7413676 4937.8977894 4767.5981091 4591.2315752 4408.0661271 
4217.2117694 4017.5683678 3807.748913 3585.9624899 3349.8276155 639.25056793 5566.7596928 5446.6390789 5324.0323557 
5198.7613032 5070.6259525 4939.4007015 4804.82949 4666.6197399 4524.4346518 4377.883276 4226.5075189 4069.7648433 
3907.0047758 3737.4362777 3560.0812179 3373.7059475 3176.7168822 2966.9938347 2741.6086629 566.49159731 4823.6551829 
4715.3510189 4604.7429952 4491.6582134 4375.9017309 4257.2524438 4135.4579255 4010.2278775 3881.2257061 3748.0575247 
3610.257551 3467.268337 3318.4134074 3162.8584036 2999.554218 2827.1507235 2643.8600604 2447.2279334 2233.7236302 
499.1550285 4167.6953685 4070.7118897 3971.6275679 3870.277953 3766.4767942 3660.0118081 3550.6393278 3438.0774489 
3321.9971217 3202.0103825 3077.6545152 2948.3702754 2813.4712098 2672.0991661 2523.1575407 2365.2069157 2196.2934021 
2013.6475733 1813.1100427 437.26342634 3589.5641097 3503.2585984 3415.0697706 3324.8442599 3232.4076444 3137.5602211 
3040.0716228 2939.6738651 2836.0522247 2728.8330598 2617.5672167 2501.7068963 2380.5725202 2253.3037463 2118.7842417 
1975.5206667 1821.4363558 1653.4921868 1466.9158788 380.69491356 3080.1858131 3003.8031388 2925.763886 2845.927874 
2764.1350419 2680.201344 2593.9134861 2505.0220778 2413.2325733 2318.193062 2219.4774532 2116.5617383 2008.7894863 
1895.3199283 1775.0465102 1646.4623489 1507.4229442 1354.6900573 1182.9440086 329.18161319 2630.8248611 2563.5297315 
2494.810437 2424.5416499 2352.5796851 2278.7586161 2202.8852664 2124.7326523 2044.0312455 1960.4571015 1873.6153534 
1783.0166517 1688.0424688 1587.8920674 1481.4976857 1367.3809945 1243.3918518 1106.1842251 950.00884291 282.32102991 
2233.1435496 2174.0391895 2113.747398 2052.1591829 1989.1489924 1924.571133 1858.2551296 1789.9996168 1719.5641517 
1646.658008 1570.9244708 1491.9182011 1409.0715173 1321.6421394 1228.6281616 1128.6209747 1019.5297629 898.00631185 
758.02977183 239.55375332 1879.231862 1827.3511226 1774.5248397 1720.6621889 1665.6578346 1609.3887172 1551.7098743 
1492.4489146 1431.3985731 1368.3064608 1302.860598 1234.6683906 1163.2250012 1087.8637298 1007.6740446 921.35699295 
826.94124644 721.18196967 597.99470487 200.13811783 1561.6172672 1515.8391192 1469.3633354 1422.1206905 1374.0298918 
1324.9947991 1274.9007947 1223.6099644 1170.9545742 1116.7280455 1060.6721412 1002.4582165 941.6587746 877.69822992 
809.77982622 736.74918685 656.82521961 566.99624785 461.36500015 162.96329183 1273.3262639 1232.105982 1190.4314875 
1148.2629229 1105.5519719 1062.2396568 1018.253431 973.50328191 927.87462452 881.22101912 833.3544367 784.02931632 
732.91816617 679.57249153 623.35655555 563.32649929 497.9867756 424.72485348 338.17199901 125.85364763 1008.6475499 
969.71665329 930.50928782 891.01981277 851.24019449 811.15904131 770.76022435 730.02088286 688.90849802 647.37652865 
605.35777185 562.75401548 519.41941689 475.13274977 429.54863436 382.10565547 331.83527774 276.90080431 213.17343229 
83.667548795 766.38061628 728.25593815 689.89235744 651.29269288 612.45996553 573.39745532 534.10877785 494.59799093 
454.86974619 414.92951084 374.78390305 334.44121882 293.91229834 253.21203096 212.36215191 171.39691273 130.37608462 
89.421624937 48.87903676 12.056320192 547.9924568 510.76611822 473.32586879 435.67612805 397.82204101 359.76976654 
321.52692721 283.10334434 244.5123065 205.77291576 166.91485174 127.98950022 89.102971088 50.571113935 15.089975924 
0.81882267456 0.0014959626024 3.7537113047e-09 2.1392832708e-20 7.6698932874e-43 353.6103949 317.51006831 281.23626152 244.79980544 
208.21585166 171.5072748 134.71238077 97.905666819 61.268130818 25.407953349 2.9762893089 0.023867812639 1.0565519652e-06 
1.7387367269e-15 4.5457190318e-33 3.1028406569e-68 1.4428344258e-138 3.0258793276e-279 0 0 183.41338723 148.80224391 
114.15930331 79.573948874 45.302723453 13.550777189 0.72527678573 0.0012548737898 2.7315222726e-09 1.1409033122e-20 1.9552954622e-43 
5.7401801725e-89 4.9248879869e-180 0 0 0 0 0 0 40.647035062 
11.601695801 0.55263574425 0.0007494101361 9.8899412341e-10 1.5011742107e-21 3.3856267049e-45 1.7210700206e-92 4.431155693e-187 0 
0 0 7350.8552309 7433.0849227 7514.6326203 7595.5216674 7675.7741813 7755.4111373 7834.4524455 
7912.917021 7990.8228484 8068.1870412 8145.0258966 8221.3549452 8297.1889977 8372.542188 8447.4280125 8519.54292 
8591.3558636 8662.7747832 8733.809783 8804.4705466 8874.7663592 8944.7061282 9014.2984021 9070.4253918 9126.4579765 
9182.3409386 9238.0771856 9293.6695089 9349.1205895 9404.4330015 9459.6092168 9491.6552787 9523.7975644 9556.0172653 
9588.3136357 9620.6859005 9653.1332559 9685.6548705 9718.2498864 9718.2438753 8586.7425155 9826.9694938 10874.161489 
11709.686365 
