# vtk DataFile Version 5.1
vtk output
ASCII
DATASET UNSTRUCTURED_GRID
POINTS 474 double
0 0 -3 -0.11344901018 0.17758382911 -3.1345113591 -0.25315847539 0.33878440002 -3.2648786912 
-0.38126193464 0.50363826191 -3.4024021726 -0.5126230829 0.66576812132 -3.5400907975 -0.65843420624 0.83063257984 -3.6586607204 
-0.82297351213 0.96639713451 -3.7890248355 -0.97532665543 1.1205572503 -3.9136168835 -1.1248934303 1.2712178784 -4.0456439831 
-1.260480867 1.4416481412 -4.1684021702 -1.3678821889 1.6074581306 -4.3216079256 -1.4660695894 1.784059061 -4.4688198332 
-1.5694943891 1.9404801104 -4.6341551474 -1.6843141616 2.0801145574 -4.8068358964 -1.7920938126 2.214324268 -4.9881403376 
-1.8953148049 2.3800598251 -5.1442721788 -1.9325266326 2.5204028889 -5.3477890193 -1.973129178 2.6634701459 -5.548744719 
-1.9865147688 2.7616205381 -5.7782819197 -2.0072616269 2.8605132642 -6.0069515429 -2.0326142165 2.9638917436 -6.2331597129 
-1.9920842053 3.0592208557 -6.4606892244 -1.9658829099 3.1812169213 -6.6773235986 -1.95489032 3.3115244098 -6.8903942944 
-1.9618163346 3.4463146723 -7.10083102 -1.9595558315 3.5807523934 -7.3115948434 -1.9591600912 3.7034011527 -7.5294414069 
-1.9922335507 3.8261433401 -7.744709848 -2.0235998482 3.9580476516 -7.9547512915 -2.053410198 4.0821397433 -8.16972221 
-2.0922570198 4.2101350542 -8.380928566 -2.0673262565 4.3390293584 -8.5936836256 -2.0611579752 4.4358891617 -8.8240748816 
-2.0457609566 4.5389463916 -9.0513239502 -2.0376118219 4.6474567449 -9.2763997037 -2.0620327306 4.7344755807 -9.5094905474 
-2.0678249667 4.7919692102 -9.7527207523 -2.0538188065 4.7894724803 -10.002315612 -2.061454029 4.7954964511 -10.25212637 
-2.0748719743 4.7792135014 -10.501234428 -2.0879807121 4.7450832286 -10.748546549 -2.1011430636 4.7103243177 -10.995768253 
-2.1002295418 4.7008537725 -11.245587136 -2.1048346881 4.6894878057 -11.495286169 -2.0641472069 4.6880886783 -11.741949039 
-2.0210511199 4.6768675797 -11.987950694 -1.9835084387 4.6483785121 -12.233468351 -1.9506827239 4.6230643942 -12.480007736 
-1.9004712217 4.6381689642 -12.724447211 -1.8375331244 4.6537107888 -12.96589544 -1.7745908329 4.6759472614 -13.206818265 
-1.7324654219 4.637703043 -13.450257845 -1.6671038275 4.5609504363 -13.679030438 -1.598399743 4.4811403079 -13.905768376 
-1.5362405788 4.3949975328 -14.132077148 -1.4802902991 4.3079524624 -14.359657292 -1.4132617365 4.2082396067 -14.578893508 
-1.3346237404 4.1025622853 -14.791374964 -1.2639046148 4.0215870271 -15.017077895 -1.1811068059 3.9440623254 -15.239865784 
-1.0986307142 3.8389919159 -15.45118995 -0.9637992344 3.7108445705 -15.618219079 -0.83607035007 3.5887696699 -15.795089231 
-0.67316557472 3.4694079904 -15.942448736 -0.49469270494 3.3540019539 -16.074087946 -0.32610371771 3.2396122859 -16.218976721 
-0.14820477506 3.1356714575 -16.360568636 0.012364935668 3.0233302117 -16.515800116 0.1549159304 2.9000749565 -16.680078405 
0.27000396814 2.7652117596 -16.856335778 0.3829086188 2.6314831379 -17.034855232 0.49747072388 2.4976228367 -17.212216287 
0.60083379182 2.4004242314 -17.418052405 0.66797056282 2.2936634265 -17.633910656 0.75017747883 2.1834571348 -17.842708636 
0.82913521304 2.0737203209 -18.053002496 0.84139766799 2.0604437881 -18.08156333 -0.5126230829 0.66576812132 -3.5400907975 
-0.52277406038 0.77956108233 -3.7624601292 -0.53449030145 0.89788545023 -3.982373916 -0.53515452505 1.0082199251 -4.2067081811 
-0.53644590475 1.1144897642 -4.4329935178 -0.53696454607 1.2507070137 -4.6426231721 -0.51878168185 1.3625180934 -4.8654856093 
-0.50273855675 1.4613674127 -5.0945520412 -0.49082816941 1.5488159746 -5.328455636 -0.53649707025 1.6336061495 -5.5591610277 
-0.58531137867 1.7180366746 -5.7893536638 -0.67092791921 1.7968155302 -6.0106310912 -0.74962718774 1.8695191762 -6.2365085027 
-0.83361798078 1.9305568324 -6.4639287111 -0.91700232593 1.9931029055 -6.6911621587 -0.9753928223 2.0369035191 -6.930268947 
-1.0475750197 2.0677300162 -7.1676282894 -1.1009443958 2.0963864931 -7.4101783173 -1.0913733021 2.1254249614 -7.6583015962 
-1.0949643175 2.1422303757 -7.9077102622 -1.0664266342 2.165504346 -8.1548653099 -1.1248934303 1.2712178784 -4.0456439831 
-1.3701105494 1.2938911888 -4.0025802454 -1.6157087444 1.3095406912 -3.9585732041 -1.8617989566 1.2971902892 -3.9162993943 
-2.1048102068 1.2871864009 -3.8584594899 -2.3536918581 1.2700404026 -3.8422133105 -2.6027259385 1.2509731012 -3.853097466 
-2.8484396668 1.2518422052 -3.8991844311 -3.0916583036 1.2465957369 -3.9567793032 -3.3338077351 1.2274596438 -4.0159186538 
-3.5641759617 1.2403219499 -4.1121737381 -3.7912733809 1.2235452575 -4.2153498243 -4.0204382622 1.2355273717 -4.3145460244 
-4.2478450942 1.2493184055 -4.4174826076 -4.4834828557 1.2739945955 -4.4972693924 -4.7217834282 1.3027450896 -4.567171082 
-4.9607669071 1.3311838138 -4.6348330046 -5.199558466 1.3700473821 -4.6978267701 -5.4302756926 1.4046385181 -4.7876767264 
-5.6506628044 1.4263130494 -4.9036928272 -5.8669179291 1.4821841882 -5.0156676629 -1.5694943891 1.9404801104 -4.6341551474 
-1.4895185985 2.1771164887 -4.6238063594 -1.381831314 2.3982210442 -4.5789039731 -1.2633369749 2.613011121 -4.5306928281 
-1.1462127147 2.8284302862 -4.4819435621 -1.0110186488 3.0229077887 -4.4019369025 -0.87475765502 3.2163027526 -4.3211202613 
-0.70885179817 3.3900448113 -4.2519180669 -0.54644443097 3.5633239055 -4.1738270778 -0.35505468441 3.7110359584 -4.1101787129 
-0.1483501848 3.8487343787 -4.0816761715 0.067808343634 3.9732436541 -4.0651555501 0.28749992486 4.0913120878 -4.0479667714 
0.50374755256 4.2143802933 -4.0236525716 0.73000447932 4.3146703998 -3.988301509 0.94938943915 4.4138568734 -3.9209792775 
1.1649049221 4.5245782177 -3.8593849555 1.3613181123 4.6701551205 -3.8071429788 1.5518888171 4.8233410947 -3.7550194358 
1.7445140987 4.9527028979 -3.6619548088 1.9520510821 5.0706612644 -3.5883375689 -1.9325266326 2.5204028889 -5.3477890193 
-2.0959306286 2.7087500879 -5.365801979 -2.2633102792 2.8933902522 -5.385602541 -2.4178782198 3.0885612485 -5.4083409222 
-2.5479432722 3.3001525355 -5.43684021 -2.6787178666 3.5102060499 -5.4725547247 -2.8107433098 3.7194501556 -5.5084181681 
-2.9413858908 3.9308341965 -5.5357915725 -3.0679742596 4.1429310387 -5.574396163 -3.2382620752 4.3194711085 -5.6227248669 
-3.4034421657 4.4981947511 -5.679938478 -3.5627383883 4.6713598955 -5.7644283958 -3.7260812147 4.8202216789 -5.8813013633 
-3.8851823596 4.9781299918 -5.9919891692 -4.0318882388 5.1192579924 -6.1371107474 -4.1776034972 5.267674107 -6.2758180666 
-4.3006385034 5.4063912843 -6.4435080543 -4.3993083167 5.5617470301 -6.612708705 -4.4888422999 5.7516090069 -6.7484882896 
-4.5691850661 5.9608949852 -6.8591427934 -4.6250139927 6.1476728782 -7.0152628647 -2.0326142165 2.9638917436 -6.2331597129 
-1.8379661322 2.9856981232 -6.3885193121 -1.6391598511 3.01010672 -6.5381197233 -1.4501474801 3.0433683747 -6.6983320385 
-1.259729815 3.1333976635 -6.8330014113 -1.0836211307 3.1947706356 -6.9994919203 -0.90834424086 3.2595978692 -7.1655504693 
-0.7571583047 3.3005064676 -7.3604075946 -0.60996519126 3.3440873206 -7.5577268704 -0.49002972453 3.3894289805 -7.7723419158 
-0.36913794691 3.4240836293 -7.988407261 -0.25986560906 3.4360709529 -8.212942025 -0.15574965957 3.4430170546 -8.4401239362 
-0.037148734201 3.3980559853 -8.65555913 0.11474077309 3.3523152081 -8.8487879034 0.25761539666 3.307527632 -9.0489900887 
0.37134473956 3.3170620605 -9.2714192487 0.45184428968 3.4066055838 -9.4905123337 0.52755006512 3.4859579188 -9.7151717258 
0.61963079677 3.5558990082 -9.9368232155 0.71155600796 3.6256716727 -10.158220968 -1.9618163346 3.4463146723 -7.10083102 
-2.0309726592 3.3358535308 -7.3141751996 -2.104616748 3.2322445112 -7.5294464686 -2.190188981 3.1546980797 -7.751175907 
-2.2976904794 3.0825969981 -7.9650563921 -2.3991063146 3.0081621014 -8.1810986901 -2.5152911443 2.932724715 -8.3892099249 
-2.6353777226 2.9151416721 -8.607773532 -2.7375207027 2.9036163259 -8.8356638083 -2.8064497636 2.8770738805 -9.0745032588 
-2.8451554793 2.8922226211 -9.3210238122 -2.8645235536 2.9469414014 -9.5641919285 -2.8916055665 2.9711691852 -9.8115369892 
-2.9352780296 2.950425028 -10.056817229 -2.9962578971 2.9862888521 -10.296598883 -3.0614373976 3.0026472426 -10.537397629 
-3.1480640416 3.0173237865 -10.77144981 -3.2331271899 3.0370317538 -11.005705774 -3.288509663 3.025893663 -11.249239601 
-3.320897827 3.0297427036 -11.497102853 -3.3208786737 3.0038642036 -11.745309351 -2.0235998482 3.9580476516 -7.9547512915 
-1.8641792939 4.1284428016 -8.0444763141 -1.703088157 4.2983186837 -8.1321793946 -1.5312487767 4.4435719007 -8.2411414537 
-1.3581433132 4.5892239683 -8.3475368188 -1.1862146091 4.7158958043 -8.4775166889 -1.0186464144 4.8089534404 -8.6380195752 
-0.86800983641 4.8930373924 -8.8189574385 -0.72884017182 4.9763139347 -9.0092120626 -0.59088419752 5.0655988889 -9.1976168027 
-0.45467165021 5.1541236562 -9.3876418208 -0.32760832179 5.2513809607 -9.5797249468 -0.20178605879 5.3528466093 -9.770443274 
-0.086646172337 5.4573309696 -9.9662131005 0.03316044533 5.5673355231 -10.15606929 0.1539268129 5.6761187869 -10.346021089 
0.26904779452 5.7614038547 -10.550895726 0.38126424888 5.8387279751 -10.76048687 0.52095386486 5.9122322598 -10.954352626 
0.65941290954 5.9812120167 -11.150747346 0.83217367741 6.082715558 -11.299200735 -2.0611579752 4.4358891617 -8.8240748816 
-2.2749039929 4.4474172946 -8.9532249573 -2.4981042812 4.4241463158 -9.0634070468 -2.7250734602 4.4038012478 -9.1662227557 
-2.9418091811 4.3703748547 -9.2862573487 -3.1667417949 4.3351481088 -9.3895259095 -3.3871943636 4.2952164277 -9.5004588882 
-3.6033343095 4.2456788972 -9.6159125883 -3.8152564157 4.1965541869 -9.7391026194 -4.0309626123 4.1245192607 -9.8429380958 
-4.2473437712 4.0832631956 -9.9611630135 -4.4655861722 4.0789046166 -10.083028748 -4.6819146229 4.0739012266 -10.208236445 
-4.9124821926 4.0776730423 -10.304799219 -5.1348570088 4.0688567566 -10.418692652 -5.3596202142 4.1049321565 -10.522037062 
[...]
CELL_DATA 451
SCALARS solution%20variable double
LOOKUP_TABLE default
7353.2066458 7115.2428837 6870.5969439 6617.0979396 6414.2351949 6203.8287167 5986.2251842 5760.6051482 5580.9912438 
5394.6080636 5201.7579548 5001.6889966 4843.1134582 4678.4897554 4508.0813773 4331.2017383 4191.4860821 4046.3830132 
3896.1222771 3740.0786767 3617.107368 3489.344043 3356.9894142 3219.4741555 3111.2180556 2998.6967669 2882.086277 
2760.866199 2665.3979634 2566.1209227 2463.1902672 2356.1262464 2271.6302017 2183.7102684 2092.5043858 1997.5635905 
1922.3449551 1844.0152439 1762.6982082 1677.9636982 1610.4699407 1540.105699 1466.982704 1390.6742055 1329.5668003 
1265.7610755 1199.3567574 1129.9091719 1074.2766022 1016.0725975 955.38035044 891.70465669 841.3112997 788.47580425 
733.25243396 675.06239173 629.89437731 582.4428246 532.7326752 480.06061859 440.06005423 397.9870916 353.8367977 
306.69038689 271.7209912 234.99324946 196.49956898 154.84353974 124.52407945 93.229153014 62.027310159 31.143305123 
6.1265695317 0.13347025897 3.9487442943e-05 8.0963261917e-12 6487.1353879 6354.2350404 6218.6597297 6080.2289245 5938.7412414 
5793.9709212 5645.6635013 5493.5304456 5337.2424113 5176.4206991 5010.6262544 4839.3452995 4661.9702452 4477.7738325 
4285.8733186 4085.179577 3874.3225318 3651.5379029 3414.4874737 646.56952619 5642.5797645 5521.7867752 5398.4687298 
5272.4465899 5143.5195977 5011.4614144 4876.0153297 4736.8882505 4593.7430686 4446.1888362 4293.7679295 4135.938985 
3972.0537749 3801.3251591 3622.7815079 3435.1998801 3237.0044339 3026.1050172 2799.6262648 573.75946308 4895.2673148 
4786.2751397 4674.934465 4561.0711509 4444.4889902 4324.9656057 4202.2473113 4076.0425979 3946.013766 3811.7660156 
3672.8329801 3528.6571779 3378.5630084 3221.7184954 3057.079451 2883.3050479 2698.6245658 2500.6156069 2285.809129 
506.38800489 4235.8821307 4138.2089219 4038.3840582 3936.2413782 3831.5928368 3724.2242747 3613.890075 3500.306326 
3383.1419444 3262.0069651 3136.4368029 3005.8706544 2869.6211276 2726.8303072 2576.4040246 2416.9094474 2246.4073646 
2062.1596632 1860.0753362 444.4992198 3655.2206675 3568.2385247 3479.3153507 3388.2955396 3295.0022803 3199.2333184 
3100.7555611 2999.2981171 2894.5431748 2786.1138391 2673.5575857 2556.3232327 2433.7280265 2304.9090992 2168.7491395 
2023.7572531 1867.8667746 1698.0659612 1509.6534789 387.99939592 3144.3331632 3067.3037322 2988.5519325 2907.9347207 
2825.2889516 2740.4272426 2653.1326783 2563.1519254 2470.186136 2373.8787032 2273.7984222 2169.4157608 2060.0684382 
1944.9097622 1822.8278226 1692.312508 1551.2221072 1396.3375776 1222.4062595 336.65631586 2694.6277831 2626.7380869 
2557.3485437 2486.330167 2413.5353079 2338.7937225 2261.9075057 2182.6444643 2100.7292977 2015.8316276 1927.5493827 
1835.3851207 1738.7112335 1636.7168983 1528.3234952 1412.0420236 1285.7149302 1146.0018396 987.20703006 290.11538577 
2297.9307026 2238.3196284 2177.4329087 2115.156765 2051.3604501 1985.8925967 1918.5764913 1849.2038579 1777.5265348 
1703.2450978 1625.9929378 1545.3133524 1460.6254942 1371.1717325 1275.9322818 1173.4781372 1061.6971058 937.22620503 
794.07460989 247.88947729 1946.514617 1894.2834903 1841.0026887 1786.5747754 1730.8872348 1673.8091635 1615.1869708 
1554.8386981 1492.5463725 1428.0454924 1361.0102096 1291.0318314 1217.5865484 1139.9849401 1057.2888397 968.16533196 
870.60540102 761.32008696 634.20646704 209.35818258 1633.1023982 1587.2898308 1540.6572669 1493.1253793 1444.60186 
1394.9785042 1344.1274077 1291.8959245 1238.09985 1182.5140011 1124.8588613 1064.7810711 1001.8238924 935.38051238 
864.61148202 788.30799907 704.61802224 610.43744717 499.76818127 173.71229605 1350.8640713 1310.3265017 1269.2027034 
1227.4354467 1184.9570806 1141.6870692 1097.5287672 1052.3651265 1006.0528699 958.41440371 909.22343799 858.18974842 
804.93336648 748.94281635 689.50460382 625.5752384 555.52536202 476.55295947 383.01657001 139.68261802 1093.5371812 
1056.6254178 1019.3477181 981.67785577 943.58208506 905.01705487 865.92847075 826.24773446 785.88731505 744.73424003 
702.64071461 659.41019201 614.77591817 568.36634533 519.64605887 467.80697137 411.54629317 348.54130876 273.87541352 
104.60663486 856.71302766 821.24394325 785.52713352 749.56314655 713.35196329 676.89267604 640.18298719 603.2184178 
565.99104063 528.48741954 490.68519503 452.54729973 414.01188894 374.97420185 335.25238985 294.51905929 252.15129478 
206.85248241 155.42986774 61.97420139 640.7709998 605.96115488 570.92574326 535.66758732 500.18975715 464.4956466 
428.58908049 392.4744698 356.1570427 319.64320138 282.9410972 246.06161021 209.02014023 171.84021214 134.56176438 
97.264090427 60.148246998 23.973175131 2.5425167489 0.018807809031 446.67821721 412.70418042 378.52952191 344.15922609 
309.59927225 274.85710188 239.94241171 204.86859225 169.65556858 134.33604945 98.971251976 63.697538911 28.894835202 
4.279362878 0.053975500305 5.7040144592e-06 5.1628201867e-14 4.0142053477e-30 2.4197390872e-62 1.2036475734e-126 274.51892253 241.61769824 
208.55952899 175.3599183 142.04255724 108.64758229 75.256409069 42.117140449 11.828894673 0.54837475314 0.000713318733 
8.8006312361e-10 1.1835182819e-21 2.10404154e-45 6.646675665e-93 6.601925324e-188 0 0 0 124.55226377 
93.276813633 62.08387252 31.198222122 6.1507405896 0.13455357731 4.0136393853e-05 2.6949695823e-12 1.102158705e-26 1.8243516042e-55 
4.9961750173e-113 8.0827458248e-228 7436.7715126 7519.4342423 7601.3786552 7682.6289448 7763.208048 7843.1377318 7922.4386715 
8001.1305236 8079.2319917 8156.7608872 8233.7341851 8310.1680759 8386.0780128 8461.4787557 8536.3844119 8608.5108917 
8680.3071244 8751.6826635 8822.6481776 8893.2139037 8963.3896692 9033.1849136 9102.6087073 9158.665883 9214.6011746 
9270.360564 9325.9474447 9381.3650902 9436.6166591 9491.705199 9546.6336509 9578.6130765 9610.6608007 9642.7585731 
9674.905973 9707.1025559 9739.347854 9771.6413771 9803.9826135 9803.9778448 8674.5695461 9907.8436494 10949.008665 
11779.099013 
