# vtk DataFile Version 5.1
vtk output
ASCII
DATASET UNSTRUCTURED_GRID
POINTS 474 double
0 0 -3 -0.11344901018 0.17758382911 -3.1345113591 -0.25315847539 0.33878440002 -3.2648786912 
-0.38126193464 0.50363826191 -3.4024021726 -0.5126230829 0.66576812132 -3.5400907975 -0.65843420624 0.83063257984 -3.6586607204 
-0.82297351213 0.96639713451 -3.7890248355 -0.97532665543 1.1205572503 -3.9136168835 -1.1248934303 1.2712178784 -4.0456439831 
-1.260480867 1.4416481412 -4.1684021702 -1.3678821889 1.6074581306 -4.3216079256 -1.4660695894 1.784059061 -4.4688198332 
-1.5694943891 1.9404801104 -4.6341551474 -1.6843141616 2.0801145574 -4.8068358964 -1.7920938126 2.214324268 -4.9881403376 
-1.8953148049 2.3800598251 -5.1442721788 -1.9325266326 2.5204028889 -5.3477890193 -1.973129178 2.6634701459 -5.548744719 
-1.9865147688 2.7616205381 -5.7782819197 -2.0072616269 2.8605132642 -6.0069515429 -2.0326142165 2.9638917436 -6.2331597129 
-1.9920842053 3.0592208557 -6.4606892244 -1.9658829099 3.1812169213 -6.6773235986 -1.95489032 3.3115244098 -6.8903942944 
-1.9618163346 3.4463146723 -7.10083102 -1.9595558315 3.5807523934 -7.3115948434 -1.9591600912 3.7034011527 -7.5294414069 
-1.9922335507 3.8261433401 -7.744709848 -2.0235998482 3.9580476516 -7.9547512915 -2.053410198 4.0821397433 -8.16972221 
-2.0922570198 4.2101350542 -8.380928566 -2.0673262565 4.3390293584 -8.5936836256 -2.0611579752 4.4358891617 -8.8240748816 
-2.0457609566 4.5389463916 -9.0513239502 -2.0376118219 4.6474567449 -9.2763997037 -2.0620327306 4.7344755807 -9.5094905474 
-2.0678249667 4.7919692102 -9.7527207523 -2.0538188065 4.7894724803 -10.002315612 -2.061454029 4.7954964511 -10.25212637 
-2.0748719743 4.7792135014 -10.501234428 -2.0879807121 4.7450832286 -10.748546549 -2.1011430636 4.7103243177 -10.995768253 
-2.1002295418 4.7008537725 -11.245587136 -2.1048346881 4.6894878057 -11.495286169 -2.0641472069 4.6880886783 -11.741949039 
-2.0210511199 4.6768675797 -11.987950694 -1.9835084387 4.6483785121 -12.233468351 -1.9506827239 4.6230643942 -12.480007736 
-1.9004712217 4.6381689642 -12.724447211 -1.8375331244 4.6537107888 -12.96589544 -1.7745908329 4.6759472614 -13.206818265 
-1.7324654219 4.637703043 -13.450257845 -1.6671038275 4.5609504363 -13.679030438 -1.598399743 4.4811403079 -13.905768376 
-1.5362405788 4.3949975328 -14.132077148 -1.4802902991 4.3079524624 -14.359657292 -1.4132617365 4.2082396067 -14.578893508 
-1.3346237404 4.1025622853 -14.791374964 -1.2639046148 4.0215870271 -15.017077895 -1.1811068059 3.9440623254 -15.239865784 
-1.0986307142 3.8389919159 -15.45118995 -0.9637992344 3.7108445705 -15.618219079 -0.83607035007 3.5887696699 -15.795089231 
-0.67316557472 3.4694079904 -15.942448736 -0.49469270494 3.3540019539 -16.074087946 -0.32610371771 3.2396122859 -16.218976721 
-0.14820477506 3.1356714575 -16.360568636 0.012364935668 3.0233302117 -16.515800116 0.1549159304 2.9000749565 -16.680078405 
0.27000396814 2.7652117596 -16.856335778 0.3829086188 2.6314831379 -17.034855232 0.49747072388 2.4976228367 -17.212216287 
0.60083379182 2.4004242314 -17.418052405 0.66797056282 2.2936634265 -17.633910656 0.75017747883 2.1834571348 -17.842708636 
0.82913521304 2.0737203209 -18.053002496 0.84139766799 2.0604437881 -18.08156333 -0.5126230829 0.66576812132 -3.5400907975 
-0.52277406038 0.77956108233 -3.7624601292 -0.53449030145 0.89788545023 -3.982373916 -0.53515452505 1.0082199251 -4.2067081811 
-0.53644590475 1.1144897642 -4.4329935178 -0.53696454607 1.2507070137 -4.6426231721 -0.51878168185 1.3625180934 -4.8654856093 
-0.50273855675 1.4613674127 -5.0945520412 -0.49082816941 1.5488159746 -5.328455636 -0.53649707025 1.6336061495 -5.5591610277 
-0.58531137867 1.7180366746 -5.7893536638 -0.67092791921 1.7968155302 -6.0106310912 -0.74962718774 1.8695191762 -6.2365085027 
-0.83361798078 1.9305568324 -6.4639287111 -0.91700232593 1.9931029055 -6.6911621587 -0.9753928223 2.0369035191 -6.930268947 
-1.0475750197 2.0677300162 -7.1676282894 -1.1009443958 2.0963864931 -7.4101783173 -1.0913733021 2.1254249614 -7.6583015962 
-1.0949643175 2.1422303757 -7.9077102622 -1.0664266342 2.165504346 -8.1548653099 -1.1248934303 1.2712178784 -4.0456439831 
-1.3701105494 1.2938911888 -4.0025802454 -1.6157087444 1.3095406912 -3.9585732041 -1.8617989566 1.2971902892 -3.9162993943 
-2.1048102068 1.2871864009 -3.8584594899 -2.3536918581 1.2700404026 -3.8422133105 -2.6027259385 1.2509731012 -3.853097466 
-2.8484396668 1.2518422052 -3.8991844311 -3.0916583036 1.2465957369 -3.9567793032 -3.3338077351 1.2274596438 -4.0159186538 
-3.5641759617 1.2403219499 -4.1121737381 -3.7912733809 1.2235452575 -4.2153498243 -4.0204382622 1.2355273717 -4.3145460244 
-4.2478450942 1.2493184055 -4.4174826076 -4.4834828557 1.2739945955 -4.4972693924 -4.7217834282 1.3027450896 -4.567171082 
-4.9607669071 1.3311838138 -4.6348330046 -5.199558466 1.3700473821 -4.6978267701 -5.4302756926 1.4046385181 -4.7876767264 
-5.6506628044 1.4263130494 -4.9036928272 -5.8669179291 1.4821841882 -5.0156676629 -1.5694943891 1.9404801104 -4.6341551474 
-1.4895185985 2.1771164887 -4.6238063594 -1.381831314 2.3982210442 -4.5789039731 -1.2633369749 2.613011121 -4.5306928281 
-1.1462127147 2.8284302862 -4.4819435621 -1.0110186488 3.0229077887 -4.4019369025 -0.87475765502 3.2163027526 -4.3211202613 
-0.70885179817 3.3900448113 -4.2519180669 -0.54644443097 3.5633239055 -4.1738270778 -0.35505468441 3.7110359584 -4.1101787129 
-0.1483501848 3.8487343787 -4.0816761715 0.067808343634 3.9732436541 -4.0651555501 0.28749992486 4.0913120878 -4.0479667714 
0.50374755256 4.2143802933 -4.0236525716 0.73000447932 4.3146703998 -3.988301509 0.94938943915 4.4138568734 -3.9209792775 
1.1649049221 4.5245782177 -3.8593849555 1.3613181123 4.6701551205 -3.8071429788 1.5518888171 4.8233410947 -3.7550194358 
1.7445140987 4.9527028979 -3.6619548088 1.9520510821 5.0706612644 -3.5883375689 -1.9325266326 2.5204028889 -5.3477890193 
-2.0959306286 2.7087500879 -5.365801979 -2.2633102792 2.8933902522 -5.385602541 -2.4178782198 3.0885612485 -5.4083409222 
-2.5479432722 3.3001525355 -5.43684021 -2.6787178666 3.5102060499 -5.4725547247 -2.8107433098 3.7194501556 -5.5084181681 
-2.9413858908 3.9308341965 -5.5357915725 -3.0679742596 4.1429310387 -5.574396163 -3.2382620752 4.3194711085 -5.6227248669 
-3.4034421657 4.4981947511 -5.679938478 -3.5627383883 4.6713598955 -5.7644283958 -3.7260812147 4.8202216789 -5.8813013633 
-3.8851823596 4.9781299918 -5.9919891692 -4.0318882388 5.1192579924 -6.1371107474 -4.1776034972 5.267674107 -6.2758180666 
-4.3006385034 5.4063912843 -6.4435080543 -4.3993083167 5.5617470301 -6.612708705 -4.4888422999 5.7516090069 -6.7484882896 
-4.5691850661 5.9608949852 -6.8591427934 -4.6250139927 6.1476728782 -7.0152628647 -2.0326142165 2.9638917436 -6.2331597129 
-1.8379661322 2.9856981232 -6.3885193121 -1.6391598511 3.01010672 -6.5381197233 -1.4501474801 3.0433683747 -6.6983320385 
-1.259729815 3.1333976635 -6.8330014113 -1.0836211307 3.1947706356 -6.9994919203 -0.90834424086 3.2595978692 -7.1655504693 
-0.7571583047 3.3005064676 -7.3604075946 -0.60996519126 3.3440873206 -7.5577268704 -0.49002972453 3.3894289805 -7.7723419158 
-0.36913794691 3.4240836293 -7.988407261 -0.25986560906 3.4360709529 -8.212942025 -0.15574965957 3.4430170546 -8.4401239362 
-0.037148734201 3.3980559853 -8.65555913 0.11474077309 3.3523152081 -8.8487879034 0.25761539666 3.307527632 -9.0489900887 
0.37134473956 3.3170620605 -9.2714192487 0.45184428968 3.4066055838 -9.4905123337 0.52755006512 3.4859579188 -9.7151717258 
0.61963079677 3.5558990082 -9.9368232155 0.71155600796 3.6256716727 -10.158220968 -1.9618163346 3.4463146723 -7.10083102 
-2.0309726592 3.3358535308 -7.3141751996 -2.104616748 3.2322445112 -7.5294464686 -2.190188981 3.1546980797 -7.751175907 
-2.2976904794 3.0825969981 -7.9650563921 -2.3991063146 3.0081621014 -8.1810986901 -2.5152911443 2.932724715 -8.3892099249 
-2.6353777226 2.9151416721 -8.607773532 -2.7375207027 2.9036163259 -8.8356638083 -2.8064497636 2.8770738805 -9.0745032588 
-2.8451554793 2.8922226211 -9.3210238122 -2.8645235536 2.9469414014 -9.5641919285 -2.8916055665 2.9711691852 -9.8115369892 
-2.9352780296 2.950425028 -10.056817229 -2.9962578971 2.9862888521 -10.296598883 -3.0614373976 3.0026472426 -10.537397629 
-3.1480640416 3.0173237865 -10.77144981 -3.2331271899 3.0370317538 -11.005705774 -3.288509663 3.025893663 -11.249239601 
-3.320897827 3.0297427036 -11.497102853 -3.3208786737 3.0038642036 -11.745309351 -2.0235998482 3.9580476516 -7.9547512915 
-1.8641792939 4.1284428016 -8.0444763141 -1.703088157 4.2983186837 -8.1321793946 -1.5312487767 4.4435719007 -8.2411414537 
-1.3581433132 4.5892239683 -8.3475368188 -1.1862146091 4.7158958043 -8.4775166889 -1.0186464144 4.8089534404 -8.6380195752 
-0.86800983641 4.8930373924 -8.8189574385 -0.72884017182 4.9763139347 -9.0092120626 -0.59088419752 5.0655988889 -9.1976168027 
-0.45467165021 5.1541236562 -9.3876418208 -0.32760832179 5.2513809607 -9.5797249468 -0.20178605879 5.3528466093 -9.770443274 
-0.086646172337 5.4573309696 -9.9662131005 0.03316044533 5.5673355231 -10.15606929 0.1539268129 5.6761187869 -10.346021089 
0.26904779452 5.7614038547 -10.550895726 0.38126424888 5.8387279751 -10.76048687 0.52095386486 5.9122322598 -10.954352626 
0.65941290954 5.9812120167 -11.150747346 0.83217367741 6.082715558 -11.299200735 -2.0611579752 4.4358891617 -8.8240748816 
-2.2749039929 4.4474172946 -8.9532249573 -2.4981042812 4.4241463158 -9.0634070468 -2.7250734602 4.4038012478 -9.1662227557 
-2.9418091811 4.3703748547 -9.2862573487 -3.1667417949 4.3351481088 -9.3895259095 -3.3871943636 4.2952164277 -9.5004588882 
-3.6033343095 4.2456788972 -9.6159125883 -3.8152564157 4.1965541869 -9.7391026194 -4.0309626123 4.1245192607 -9.8429380958 
-4.2473437712 4.0832631956 -9.9611630135 -4.4655861722 4.0789046166 -10.083028748 -4.6819146229 4.0739012266 -10.208236445 
-4.9124821926 4.0776730423 -10.304799219 -5.1348570088 4.0688567566 -10.418692652 -5.3596202142 4.1049321565 -10.522037062 
[...]
CELL_DATA 451
SCALARS solution%20variable double
LOOKUP_TABLE default
7410.6003741 7171.7327286 6926.1594705 6671.7117677 6468.0602755 6256.8426058 6038.4063039 5811.9340651 5631.636548 
5444.5503465 5250.9783904 5050.1714666 4891.0324708 4725.8302549 4554.8285838 4377.3444209 4237.201877 4091.6627077 
3940.9566007 3784.4630931 3661.2198366 3533.1828991 3400.552568 3262.7658678 3154.4135816 3041.8039751 2925.1122013 
2803.826401 2708.4611083 2609.3067725 2506.5172969 2399.6244009 2315.4551142 2227.8964343 2137.0845461 2042.5860067 
1967.9399928 1890.2355379 1809.59427 1725.6073294 1658.9390984 1589.4747923 1517.3240976 1442.0901626 1382.0136849 
1319.3361706 1254.1568002 1186.0741657 1131.4761884 1074.4142559 1014.9755782 952.73099548 903.04053427 850.99714914 
796.66491601 739.55042852 694.7144747 647.65411921 598.40812815 546.39154012 506.39677293 464.34907866 420.2626327 
373.41348044 338.26240827 301.34287162 262.68360451 221.36931493 191.59090429 161.07230951 130.49911732 99.903389517 
69.351112286 39.05236112 11.259867546 1.5064495775 6541.3410021 6408.0114023 6271.9846642 6133.0799819 5991.0957467 
5845.8060433 5696.9563493 5544.2582029 5387.3825218 5225.9511274 5059.5258517 4887.5943232 4709.5511055 4524.6721841 
4332.0796865 4130.6918382 3919.1498154 3695.7069457 3458.0534553 651.46111521 5693.4839207 5572.2417154 5448.4487912 
5321.9255916 5192.4708628 5059.8578086 4923.8293219 4784.0920074 4640.3085971 4492.0881965 4338.9735529 4180.4241507 
4015.793331 3844.2966305 3664.9668311 3476.5881953 3277.596729 3065.9221974 2838.7239826 578.61414642 4943.3169619 
4833.8639337 4722.0330249 4607.6493035 4490.515758 4370.409205 4247.0751663 4120.2213794 3989.5094684 3854.544093 
3714.8585771 3569.8955081 3418.9799744 3261.2817095 3095.7599406 2921.0801798 2735.4832461 2536.5680002 2320.9061033 
511.21497646 4281.5928923 4183.4559636 4083.1339944 3980.4597291 3875.2439767 3767.2713836 3656.2950951 3542.029931 
3424.143532 3302.2446896 3175.867679 3044.450782 2907.3061287 2763.5761392 2612.1684777 2451.6549451 2280.1063693 
2094.8056843 1891.7072 449.32128963 3699.1834083 3611.7437083 3522.3251495 3430.7706972 3336.9020174 3240.5152307 
3141.3755117 3039.2101252 2933.6993072 2824.4641163 2711.0499232 2592.90346 2469.3400602 2339.4954216 2202.2518899 
2056.1205834 1899.04196 1728.0229898 1538.409694 392.85717249 3187.2237066 3109.7526083 3030.5161643 2949.3695181 
2866.1475697 2780.6608232 2692.6900699 2601.9794821 2508.227495 2411.074542 2310.0862087 2204.7295164 2094.3385707 
1978.0630856 1854.7880313 1723.0017292 1580.5650868 1424.2727878 1248.9175755 341.61320033 2737.2200586 2668.9164584 
2599.0637598 2527.5306871 2454.1671093 2378.8000771 2301.2287209 2221.2175805 2138.4877355 2052.7047769 1963.4621264 
1870.2572946 1772.45704 1669.2443374 1559.5339993 1441.8308031 1313.9734789 1172.6271025 1012.1336011 295.26247425 
2341.1134381 2281.1342431 2219.8222007 2157.0605984 2092.7155006 2026.6320527 1958.6297012 1888.49591 1815.9777528 
1740.7704312 1662.5012203 1580.7063977 1494.7969992 1404.0059718 1307.3026485 1203.2458186 1089.7110019 963.32826072 
818.13070269 253.35999301 1991.307558 1938.7859431 1885.1471452 1830.2898181 1774.0971972 1716.4337312 1657.1407071 
1596.030472 1532.8786626 1467.413528 1399.3008962 1328.122391 1253.342776 1174.2589531 1089.916177 998.96133812 
899.36354584 787.8096224 658.19263499 215.34572064 1680.6711482 1634.7132176 1587.8547591 1540.0108436 1491.0830751 
1440.956594 1389.4961705 1336.5410278 1281.897848 1225.3311145 1166.5494327 1105.1855703 1040.7662804 972.66467996 
900.01909573 821.58969268 735.48435749 638.54835367 524.73503726 180.53191288 1402.524778 1362.1552158 1321.1053539 
1279.3088841 1236.6882135 1193.1518793 1148.5911698 1102.8756322 1055.8469816 1007.3106569 957.02380274 904.67466331 
849.85729546 792.0287584 730.43629018 663.98559363 590.9788004 508.51802627 410.83234934 147.98138392 1150.6459833 
1114.6172589 1078.1290119 1041.1391431 1003.5971851 965.44221447 926.59777558 886.96987557 846.44206333 804.86826949 
762.06256087 717.78401373 671.7135227 623.4165636 572.27983423 517.39506606 457.32335484 389.54290414 308.82184854 
116.03276348 919.63632688 886.07715168 852.2358275 818.10039763 783.65524986 748.87985976 713.74705751 678.22060659 
642.2517692 605.77434529 568.69734781 530.8938925 492.18376816 452.30489222 410.86387306 367.24372167 320.41264247 
268.46201684 207.16959356 80.959556978 707.1912119 674.36423318 641.30745852 608.02300839 574.51312317 540.78019142 
506.82678627 472.65571186 438.27006151 403.67328694 368.86926947 333.86235871 298.65726702 263.25847258 227.6680283 
191.87805518 155.84406717 119.37899591 81.628001143 31.354620634 514.72321008 482.53743095 450.14262157 417.5416907 
384.73795972 351.73530421 318.53836627 285.15288479 251.58623183 217.84833225 183.95335399 149.92313583 115.79526888 
81.647490207 47.709529397 15.560560861 1.0089908782 0.0025260505163 1.1302451714e-08 2.6910208307e-19 342.63729299 311.25952171 
279.70693297 247.98510428 216.10164738 184.06749515 151.89947808 119.62617157 87.303444564 55.064470175 23.307831534 
2.8294925904 0.023727368035 1.1068499506e-06 1.9471431323e-15 5.7107453268e-33 4.8972710815e-68 3.5975127659e-138 2.1563690386e-278 191.63482295 
161.15150449 130.60300795 100.02133029 69.47192545 39.160007633 11.208297981 0.53432791467 0.00071940321597 9.2481774643e-10 
1.317750566e-21 5.6715690642e-45 7494.4819598 7577.436758 7659.6491333 7741.1438346 7821.9443343 7902.0729159 7981.5507546 
8060.3979904 8138.6337955 8216.2764362 8293.3433294 8369.8510955 8445.8156059 8521.2520285 8596.174868 8668.3128549 
8740.1017324 8811.4521035 8882.3750046 8952.8810326 9022.9803683 9092.6827973 9161.9977301 9218.0111102 9273.8842586 
9329.5639391 9385.0538621 9440.3576151 9495.4786677 9550.4203757 9605.1859861 9637.1223934 9669.1084504 9701.1262711 
9733.1756465 9765.2563474 9797.3681246 9829.51071 9861.683817 9861.6798782 8733.6153049 9962.3114409 10999.487007 
11825.966024 
