# vtk DataFile Version 5.1
vtk output
ASCII
DATASET UNSTRUCTURED_GRID
POINTS 474 double
0 0 -3 -0.11344901018 0.17758382911 -3.1345113591 -0.25315847539 0.33878440002 -3.2648786912 
-0.38126193464 0.50363826191 -3.4024021726 -0.5126230829 0.66576812132 -3.5400907975 -0.65843420624 0.83063257984 -3.6586607204 
-0.82297351213 0.96639713451 -3.7890248355 -0.97532665543 1.1205572503 -3.9136168835 -1.1248934303 1.2712178784 -4.0456439831 
-1.260480867 1.4416481412 -4.1684021702 -1.3678821889 1.6074581306 -4.3216079256 -1.4660695894 1.784059061 -4.4688198332 
-1.5694943891 1.9404801104 -4.6341551474 -1.6843141616 2.0801145574 -4.8068358964 -1.7920938126 2.214324268 -4.9881403376 
-1.8953148049 2.3800598251 -5.1442721788 -1.9325266326 2.5204028889 -5.3477890193 -1.973129178 2.6634701459 -5.548744719 
-1.9865147688 2.7616205381 -5.7782819197 -2.0072616269 2.8605132642 -6.0069515429 -2.0326142165 2.9638917436 -6.2331597129 
-1.9920842053 3.0592208557 -6.4606892244 -1.9658829099 3.1812169213 -6.6773235986 -1.95489032 3.3115244098 -6.8903942944 
-1.9618163346 3.4463146723 -7.10083102 -1.9595558315 3.5807523934 -7.3115948434 -1.9591600912 3.7034011527 -7.5294414069 
-1.9922335507 3.8261433401 -7.744709848 -2.0235998482 3.9580476516 -7.9547512915 -2.053410198 4.0821397433 -8.16972221 
-2.0922570198 4.2101350542 -8.380928566 -2.0673262565 4.3390293584 -8.5936836256 -2.0611579752 4.4358891617 -8.8240748816 
-2.0457609566 4.5389463916 -9.0513239502 -2.0376118219 4.6474567449 -9.2763997037 -2.0620327306 4.7344755807 -9.5094905474 
-2.0678249667 4.7919692102 -9.7527207523 -2.0538188065 4.7894724803 -10.002315612 -2.061454029 4.7954964511 -10.25212637 
-2.0748719743 4.7792135014 -10.501234428 -2.0879807121 4.7450832286 -10.748546549 -2.1011430636 4.7103243177 -10.995768253 
-2.1002295418 4.7008537725 -11.245587136 -2.1048346881 4.6894878057 -11.495286169 -2.0641472069 4.6880886783 -11.741949039 
-2.0210511199 4.6768675797 -11.987950694 -1.9835084387 4.6483785121 -12.233468351 -1.9506827239 4.6230643942 -12.480007736 
-1.9004712217 4.6381689642 -12.724447211 -1.8375331244 4.6537107888 -12.96589544 -1.7745908329 4.6759472614 -13.206818265 
-1.7324654219 4.637703043 -13.450257845 -1.6671038275 4.5609504363 -13.679030438 -1.598399743 4.4811403079 -13.905768376 
-1.5362405788 4.3949975328 -14.132077148 -1.4802902991 4.3079524624 -14.359657292 -1.4132617365 4.2082396067 -14.578893508 
-1.3346237404 4.1025622853 -14.791374964 -1.2639046148 4.0215870271 -15.017077895 -1.1811068059 3.9440623254 -15.239865784 
-1.0986307142 3.8389919159 -15.45118995 -0.9637992344 3.7108445705 -15.618219079 -0.83607035007 3.5887696699 -15.795089231 
-0.67316557472 3.4694079904 -15.942448736 -0.49469270494 3.3540019539 -16.074087946 -0.32610371771 3.2396122859 -16.218976721 
-0.14820477506 3.1356714575 -16.360568636 0.012364935668 3.0233302117 -16.515800116 0.1549159304 2.9000749565 -16.680078405 
0.27000396814 2.7652117596 -16.856335778 0.3829086188 2.6314831379 -17.034855232 0.49747072388 2.4976228367 -17.212216287 
0.60083379182 2.4004242314 -17.418052405 0.66797056282 2.2936634265 -17.633910656 0.75017747883 2.1834571348 -17.842708636 
0.82913521304 2.0737203209 -18.053002496 0.84139766799 2.0604437881 -18.08156333 -0.5126230829 0.66576812132 -3.5400907975 
-0.52277406038 0.77956108233 -3.7624601292 -0.53449030145 0.89788545023 -3.982373916 -0.53515452505 1.0082199251 -4.2067081811 
-0.53644590475 1.1144897642 -4.4329935178 -0.53696454607 1.2507070137 -4.6426231721 -0.51878168185 1.3625180934 -4.8654856093 
-0.50273855675 1.4613674127 -5.0945520412 -0.49082816941 1.5488159746 -5.328455636 -0.53649707025 1.6336061495 -5.5591610277 
-0.58531137867 1.7180366746 -5.7893536638 -0.67092791921 1.7968155302 -6.0106310912 -0.74962718774 1.8695191762 -6.2365085027 
-0.83361798078 1.9305568324 -6.4639287111 -0.91700232593 1.9931029055 -6.6911621587 -0.9753928223 2.0369035191 -6.930268947 
-1.0475750197 2.0677300162 -7.1676282894 -1.1009443958 2.0963864931 -7.4101783173 -1.0913733021 2.1254249614 -7.6583015962 
-1.0949643175 2.1422303757 -7.9077102622 -1.0664266342 2.165504346 -8.1548653099 -1.1248934303 1.2712178784 -4.0456439831 
-1.3701105494 1.2938911888 -4.0025802454 -1.6157087444 1.3095406912 -3.9585732041 -1.8617989566 1.2971902892 -3.9162993943 
-2.1048102068 1.2871864009 -3.8584594899 -2.3536918581 1.2700404026 -3.8422133105 -2.6027259385 1.2509731012 -3.853097466 
-2.8484396668 1.2518422052 -3.8991844311 -3.0916583036 1.2465957369 -3.9567793032 -3.3338077351 1.2274596438 -4.0159186538 
-3.5641759617 1.2403219499 -4.1121737381 -3.7912733809 1.2235452575 -4.2153498243 -4.0204382622 1.2355273717 -4.3145460244 
-4.2478450942 1.2493184055 -4.4174826076 -4.4834828557 1.2739945955 -4.4972693924 -4.7217834282 1.3027450896 -4.567171082 
-4.9607669071 1.3311838138 -4.6348330046 -5.199558466 1.3700473821 -4.6978267701 -5.4302756926 1.4046385181 -4.7876767264 
-5.6506628044 1.4263130494 -4.9036928272 -5.8669179291 1.4821841882 -5.0156676629 -1.5694943891 1.9404801104 -4.6341551474 
-1.4895185985 2.1771164887 -4.6238063594 -1.381831314 2.3982210442 -4.5789039731 -1.2633369749 2.613011121 -4.5306928281 
-1.1462127147 2.8284302862 -4.4819435621 -1.0110186488 3.0229077887 -4.4019369025 -0.87475765502 3.2163027526 -4.3211202613 
-0.70885179817 3.3900448113 -4.2519180669 -0.54644443097 3.5633239055 -4.1738270778 -0.35505468441 3.7110359584 -4.1101787129 
-0.1483501848 3.8487343787 -4.0816761715 0.067808343634 3.9732436541 -4.0651555501 0.28749992486 4.0913120878 -4.0479667714 
0.50374755256 4.2143802933 -4.0236525716 0.73000447932 4.3146703998 -3.988301509 0.94938943915 4.4138568734 -3.9209792775 
1.1649049221 4.5245782177 -3.8593849555 1.3613181123 4.6701551205 -3.8071429788 1.5518888171 4.8233410947 -3.7550194358 
1.7445140987 4.9527028979 -3.6619548088 1.9520510821 5.0706612644 -3.5883375689 -1.9325266326 2.5204028889 -5.3477890193 
-2.0959306286 2.7087500879 -5.365801979 -2.2633102792 2.8933902522 -5.385602541 -2.4178782198 3.0885612485 -5.4083409222 
-2.5479432722 3.3001525355 -5.43684021 -2.6787178666 3.5102060499 -5.4725547247 -2.8107433098 3.7194501556 -5.5084181681 
-2.9413858908 3.9308341965 -5.5357915725 -3.0679742596 4.1429310387 -5.574396163 -3.2382620752 4.3194711085 -5.6227248669 
-3.4034421657 4.4981947511 -5.679938478 -3.5627383883 4.6713598955 -5.7644283958 -3.7260812147 4.8202216789 -5.8813013633 
-3.8851823596 4.9781299918 -5.9919891692 -4.0318882388 5.1192579924 -6.1371107474 -4.1776034972 5.267674107 -6.2758180666 
-4.3006385034 5.4063912843 -6.4435080543 -4.3993083167 5.5617470301 -6.612708705 -4.4888422999 5.7516090069 -6.7484882896 
-4.5691850661 5.9608949852 -6.8591427934 -4.6250139927 6.1476728782 -7.0152628647 -2.0326142165 2.9638917436 -6.2331597129 
-1.8379661322 2.9856981232 -6.3885193121 -1.6391598511 3.01010672 -6.5381197233 -1.4501474801 3.0433683747 -6.6983320385 
-1.259729815 3.1333976635 -6.8330014113 -1.0836211307 3.1947706356 -6.9994919203 -0.90834424086 3.2595978692 -7.1655504693 
-0.7571583047 3.3005064676 -7.3604075946 -0.60996519126 3.3440873206 -7.5577268704 -0.49002972453 3.3894289805 -7.7723419158 
-0.36913794691 3.4240836293 -7.988407261 -0.25986560906 3.4360709529 -8.212942025 -0.15574965957 3.4430170546 -8.4401239362 
-0.037148734201 3.3980559853 -8.65555913 0.11474077309 3.3523152081 -8.8487879034 0.25761539666 3.307527632 -9.0489900887 
0.37134473956 3.3170620605 -9.2714192487 0.45184428968 3.4066055838 -9.4905123337 0.52755006512 3.4859579188 -9.7151717258 
0.61963079677 3.5558990082 -9.9368232155 0.71155600796 3.6256716727 -10.158220968 -1.9618163346 3.4463146723 -7.10083102 
-2.0309726592 3.3358535308 -7.3141751996 -2.104616748 3.2322445112 -7.5294464686 -2.190188981 3.1546980797 -7.751175907 
-2.2976904794 3.0825969981 -7.9650563921 -2.3991063146 3.0081621014 -8.1810986901 -2.5152911443 2.932724715 -8.3892099249 
-2.6353777226 2.9151416721 -8.607773532 -2.7375207027 2.9036163259 -8.8356638083 -2.8064497636 2.8770738805 -9.0745032588 
-2.8451554793 2.8922226211 -9.3210238122 -2.8645235536 2.9469414014 -9.5641919285 -2.8916055665 2.9711691852 -9.8115369892 
-2.9352780296 2.950425028 -10.056817229 -2.9962578971 2.9862888521 -10.296598883 -3.0614373976 3.0026472426 -10.537397629 
-3.1480640416 3.0173237865 -10.77144981 -3.2331271899 3.0370317538 -11.005705774 -3.288509663 3.025893663 -11.249239601 
-3.320897827 3.0297427036 -11.497102853 -3.3208786737 3.0038642036 -11.745309351 -2.0235998482 3.9580476516 -7.9547512915 
-1.8641792939 4.1284428016 -8.0444763141 -1.703088157 4.2983186837 -8.1321793946 -1.5312487767 4.4435719007 -8.2411414537 
-1.3581433132 4.5892239683 -8.3475368188 -1.1862146091 4.7158958043 -8.4775166889 -1.0186464144 4.8089534404 -8.6380195752 
-0.86800983641 4.8930373924 -8.8189574385 -0.72884017182 4.9763139347 -9.0092120626 -0.59088419752 5.0655988889 -9.1976168027 
-0.45467165021 5.1541236562 -9.3876418208 -0.32760832179 5.2513809607 -9.5797249468 -0.20178605879 5.3528466093 -9.770443274 
-0.086646172337 5.4573309696 -9.9662131005 0.03316044533 5.5673355231 -10.15606929 0.1539268129 5.6761187869 -10.346021089 
0.26904779452 5.7614038547 -10.550895726 0.38126424888 5.8387279751 -10.76048687 0.52095386486 5.9122322598 -10.954352626 
0.65941290954 5.9812120167 -11.150747346 0.83217367741 6.082715558 -11.299200735 -2.0611579752 4.4358891617 -8.8240748816 
-2.2749039929 4.4474172946 -8.9532249573 -2.4981042812 4.4241463158 -9.0634070468 -2.7250734602 4.4038012478 -9.1662227557 
-2.9418091811 4.3703748547 -9.2862573487 -3.1667417949 4.3351481088 -9.3895259095 -3.3871943636 4.2952164277 -9.5004588882 
-3.6033343095 4.2456788972 -9.6159125883 -3.8152564157 4.1965541869 -9.7391026194 -4.0309626123 4.1245192607 -9.8429380958 
-4.2473437712 4.0832631956 -9.9611630135 -4.4655861722 4.0789046166 -10.083028748 -4.6819146229 4.0739012266 -10.208236445 
-4.9124821926 4.0776730423 -10.304799219 -5.1348570088 4.0688567566 -10.418692652 -5.3596202142 4.1049321565 -10.522037062 
[...]
CELL_DATA 451
SCALARS solution%20variable double
LOOKUP_TABLE default
7416.9083647 7177.941272 6932.26599 6677.7139051 6473.9755458 6262.6685313 6044.1405028 5817.5743863 5637.2014679 
5450.0377142 5256.3861199 5055.4977625 4896.2964799 4731.0302968 4559.9630093 4382.4119618 4242.2220553 4096.6344761 
3945.8789071 3789.3353927 3666.0617375 3537.9941738 3405.3329437 3267.5157521 3159.152368 3046.5324727 2929.8311292 
2808.537391 2713.1829689 2614.041608 2511.2670708 2404.392301 2320.2587707 2232.7395575 2141.9706511 2047.5202579 
1972.9377284 1895.3024514 1814.7358099 1730.8311908 1664.2559377 1594.8927175 1522.8509545 1447.7369211 1387.7804609 
1325.2337976 1260.1959472 1192.2699761 1137.8029789 1080.8848625 1021.603068 959.5349745 909.94679162 858.01745695 
803.81208282 746.84650901 702.06929335 655.07659434 605.90880341 553.99356701 514.02153293 472.00282488 427.95434973 
381.17240467 346.03159428 309.13037639 270.50322117 229.27854273 199.59295512 169.18862286 138.72206962 108.22163909 
77.745027227 47.45119494 18.066571034 3.0152052301 6547.2984105 6413.9217878 6277.8456095 6138.8890407 5996.850449 
5851.5039034 5702.5948762 5549.8349154 5392.8949686 5231.3969161 5064.902689 4892.9000719 4714.7838663 4529.830415 
4337.1623808 4135.6987951 3924.0820645 3700.5674381 3462.8482384 651.99754913 5699.0776558 5577.7861985 5453.9412255 
5327.3631252 5197.8505907 5065.1767773 4929.0845362 4789.280441 4645.4272084 4497.1339522 4343.943463 4185.3153214 
4020.6030436 3849.0224631 3669.606849 3481.1412556 3282.0629875 3070.3039863 2843.0274191 579.1464131 4948.5957277 
4839.0921144 4727.2074203 4612.7666282 4495.5726403 4375.4021869 4252.0007054 4125.0758533 3994.2891832 3859.2452994 
3719.4774954 3574.4283704 3423.4230935 3265.6315911 3100.0134709 2925.234946 2739.5381047 2540.5241355 2324.7691384 
511.74400887 4286.612916 4188.4250061 4088.0484221 3985.3157902 3880.0377968 3771.9989596 3660.9522917 3546.6124769 
3428.6470201 3306.6645808 3180.1993143 3048.6894082 2911.4469473 2767.6143966 2616.0996312 2455.4749708 2283.8123549 
2098.3970305 1895.1882581 449.84948235 3704.0091864 3616.519059 3527.0459598 3435.4327007 3341.5007839 3245.0461558 
3145.8338049 3043.5907984 2937.9971636 2828.6737404 2715.1656757 2596.919481 2473.2502899 2343.2936549 2205.9318982 
2059.676377 1902.4683505 1731.3168599 1541.5731154 393.38882843 3191.9291189 3114.4091444 3035.119158 2953.9141089 
2870.6286878 2785.073172 2697.0281074 2606.237399 2512.399191 2415.1536009 2314.0658715 2208.6026576 2098.0976821 
1981.7002816 1858.2951054 1726.3703302 1583.7871853 1427.3419 1251.8322218 342.15505831 2741.8898939 2673.5401445 
2603.6359589 2532.0458175 2458.6193247 2383.1832425 2305.5363851 2225.4429437 2142.6236117 2056.7435503 1967.3957008 
1874.0770372 1776.1537198 1672.8080681 1562.9542063 1445.0962713 1317.0726431 1175.5490727 1014.871701 295.8242539 
2345.8453543 2285.8244532 2224.464516 2161.6485203 2097.2421926 2031.0903095 1963.0119104 1892.7940074 1820.1831689 
1744.874026 1666.4932048 1584.5762383 1498.5333019 1407.5963466 1310.7335593 1206.5024548 1092.777295 966.18751044 
820.76900424 253.9555859 1996.2141373 1943.6582171 1889.9778179 1835.0711856 1778.8211124 1721.0915618 1661.7232851 
1600.5280336 1537.2807744 1471.7089965 1403.4776541 1332.1673539 1257.2416603 1177.996041 1093.4740185 1002.3203864 
902.50185865 790.70295773 660.81666651 215.99516397 1685.8818383 1639.903009 1593.0149229 1545.1320811 1496.155469 
1445.96955 1394.4383486 1341.4002592 1286.6610331 1229.9840958 1171.0768339 1109.5705875 1044.9904075 976.70733796 
903.8574114 825.19759218 738.83165745 641.59975906 527.45068157 181.26603689 1408.1870837 1367.8243327 1326.7708837 
1284.9595425 1242.3117505 1198.7349869 1154.1193747 1108.3331674 1061.2166317 1012.5735662 962.15923215 909.66004359 
854.66751608 796.63561342 734.80769084 668.08440945 594.76110221 511.9304462 413.80919805 148.85765072 1156.9214642 
1120.9642119 1084.5361303 1047.5935588 1010.0842902 971.94545776 933.09887857 893.44818897 852.87426737 811.22801828 
768.32004935 723.90543407 677.66035672 629.14462138 577.73788116 522.52274517 462.04782953 393.77305385 312.43811802 
117.19171416 926.63627701 893.27149141 859.61765521 825.66077366 791.38280525 756.76032041 721.76266478 686.34941047 
650.466764 614.04240865 576.97793039 539.13738434 500.32942999 460.27817018 418.57277329 374.57360841 327.21806526 
274.55210516 212.27720801 82.760082793 714.72224656 682.13574459 649.31921431 616.27469485 583.00432906 549.51038295 
515.79526697 481.86155599 447.71199948 413.34950043 378.77701087 343.99721596 309.01168568 273.81865784 238.40715156 
202.7405968 166.70761064 129.95434748 91.171281122 35.627484017 522.53477037 490.56641072 458.38859462 426.0040621 
393.41592671 360.62779957 327.64397348 294.46970602 261.11167456 227.57874922 193.88340267 160.0445328 126.09384661 
92.092746394 58.186546214 24.815316854 3.0930511529 0.027578152249 1.4692904998e-06 4.6721360595e-15 350.56835209 319.37550897 
288.00706656 256.46806979 224.76532797 192.90847645 160.91199153 128.79935985 96.612688259 64.438862784 32.522053502 
6.5058271891 0.14735748413 4.741719463e-05 3.7346512246e-12 2.1138775125e-26 6.7107191305e-55 6.7599035145e-112 7.6993190653e-226 199.63880086 
169.27164053 138.83156687 108.3465988 77.872791247 47.558975632 18.017066369 1.6383354983 0.0077239813394 1.1523574324e-07 
2.0969869527e-17 1.4387826781e-36 7500.8247979 7583.8117489 7666.0536417 7747.5752856 7828.400211 7908.5507576 7988.0481548 
8066.9125951 8145.1633014 8222.8185895 8299.8959241 8376.4119722 8452.3826506 8527.8231714 8602.7480824 8674.887511 
8746.6757637 8818.0235575 8888.9419683 8959.4416324 9029.5327686 9099.2252001 9168.5283744 9224.5370889 9280.4035606 
9336.0746381 9391.5540663 9446.8454667 9501.9523424 9556.878083 9611.6259684 9643.5577311 9675.5370991 9707.5462263 
9739.5849264 9771.6529935 9803.7502023 9835.8763086 9868.0310502 9868.0272024 8740.1073413 9968.3047706 11005.044722 
11831.128733 
