# vtk DataFile Version 5.1
vtk output
ASCII
DATASET UNSTRUCTURED_GRID
POINTS 474 double
0 0 -3 -0.11344901018 0.17758382911 -3.1345113591 -0.25315847539 0.33878440002 -3.2648786912 
-0.38126193464 0.50363826191 -3.4024021726 -0.5126230829 0.66576812132 -3.5400907975 -0.65843420624 0.83063257984 -3.6586607204 
-0.82297351213 0.96639713451 -3.7890248355 -0.97532665543 1.1205572503 -3.9136168835 -1.1248934303 1.2712178784 -4.0456439831 
-1.260480867 1.4416481412 -4.1684021702 -1.3678821889 1.6074581306 -4.3216079256 -1.4660695894 1.784059061 -4.4688198332 
-1.5694943891 1.9404801104 -4.6341551474 -1.6843141616 2.0801145574 -4.8068358964 -1.7920938126 2.214324268 -4.9881403376 
-1.8953148049 2.3800598251 -5.1442721788 -1.9325266326 2.5204028889 -5.3477890193 -1.973129178 2.6634701459 -5.548744719 
-1.9865147688 2.7616205381 -5.7782819197 -2.0072616269 2.8605132642 -6.0069515429 -2.0326142165 2.9638917436 -6.2331597129 
-1.9920842053 3.0592208557 -6.4606892244 -1.9658829099 3.1812169213 -6.6773235986 -1.95489032 3.3115244098 -6.8903942944 
-1.9618163346 3.4463146723 -7.10083102 -1.9595558315 3.5807523934 -7.3115948434 -1.9591600912 3.7034011527 -7.5294414069 
-1.9922335507 3.8261433401 -7.744709848 -2.0235998482 3.9580476516 -7.9547512915 -2.053410198 4.0821397433 -8.16972221 
-2.0922570198 4.2101350542 -8.380928566 -2.0673262565 4.3390293584 -8.5936836256 -2.0611579752 4.4358891617 -8.8240748816 
-2.0457609566 4.5389463916 -9.0513239502 -2.0376118219 4.6474567449 -9.2763997037 -2.0620327306 4.7344755807 -9.5094905474 
-2.0678249667 4.7919692102 -9.7527207523 -2.0538188065 4.7894724803 -10.002315612 -2.061454029 4.7954964511 -10.25212637 
-2.0748719743 4.7792135014 -10.501234428 -2.0879807121 4.7450832286 -10.748546549 -2.1011430636 4.7103243177 -10.995768253 
-2.1002295418 4.7008537725 -11.245587136 -2.1048346881 4.6894878057 -11.495286169 -2.0641472069 4.6880886783 -11.741949039 
-2.0210511199 4.6768675797 -11.987950694 -1.9835084387 4.6483785121 -12.233468351 -1.9506827239 4.6230643942 -12.480007736 
-1.9004712217 4.6381689642 -12.724447211 -1.8375331244 4.6537107888 -12.96589544 -1.7745908329 4.6759472614 -13.206818265 
-1.7324654219 4.637703043 -13.450257845 -1.6671038275 4.5609504363 -13.679030438 -1.598399743 4.4811403079 -13.905768376 
-1.5362405788 4.3949975328 -14.132077148 -1.4802902991 4.3079524624 -14.359657292 -1.4132617365 4.2082396067 -14.578893508 
-1.3346237404 4.1025622853 -14.791374964 -1.2639046148 4.0215870271 -15.017077895 -1.1811068059 3.9440623254 -15.239865784 
-1.0986307142 3.8389919159 -15.45118995 -0.9637992344 3.7108445705 -15.618219079 -0.83607035007 3.5887696699 -15.795089231 
-0.67316557472 3.4694079904 -15.942448736 -0.49469270494 3.3540019539 -16.074087946 -0.32610371771 3.2396122859 -16.218976721 
-0.14820477506 3.1356714575 -16.360568636 0.012364935668 3.0233302117 -16.515800116 0.1549159304 2.9000749565 -16.680078405 
0.27000396814 2.7652117596 -16.856335778 0.3829086188 2.6314831379 -17.034855232 0.49747072388 2.4976228367 -17.212216287 
0.60083379182 2.4004242314 -17.418052405 0.66797056282 2.2936634265 -17.633910656 0.75017747883 2.1834571348 -17.842708636 
0.82913521304 2.0737203209 -18.053002496 0.84139766799 2.0604437881 -18.08156333 -0.5126230829 0.66576812132 -3.5400907975 
-0.52277406038 0.77956108233 -3.7624601292 -0.53449030145 0.89788545023 -3.982373916 -0.53515452505 1.0082199251 -4.2067081811 
-0.53644590475 1.1144897642 -4.4329935178 -0.53696454607 1.2507070137 -4.6426231721 -0.51878168185 1.3625180934 -4.8654856093 
-0.50273855675 1.4613674127 -5.0945520412 -0.49082816941 1.5488159746 -5.328455636 -0.53649707025 1.6336061495 -5.5591610277 
-0.58531137867 1.7180366746 -5.7893536638 -0.67092791921 1.7968155302 -6.0106310912 -0.74962718774 1.8695191762 -6.2365085027 
-0.83361798078 1.9305568324 -6.4639287111 -0.91700232593 1.9931029055 -6.6911621587 -0.9753928223 2.0369035191 -6.930268947 
-1.0475750197 2.0677300162 -7.1676282894 -1.1009443958 2.0963864931 -7.4101783173 -1.0913733021 2.1254249614 -7.6583015962 
-1.0949643175 2.1422303757 -7.9077102622 -1.0664266342 2.165504346 -8.1548653099 -1.1248934303 1.2712178784 -4.0456439831 
-1.3701105494 1.2938911888 -4.0025802454 -1.6157087444 1.3095406912 -3.9585732041 -1.8617989566 1.2971902892 -3.9162993943 
-2.1048102068 1.2871864009 -3.8584594899 -2.3536918581 1.2700404026 -3.8422133105 -2.6027259385 1.2509731012 -3.853097466 
-2.8484396668 1.2518422052 -3.8991844311 -3.0916583036 1.2465957369 -3.9567793032 -3.3338077351 1.2274596438 -4.0159186538 
-3.5641759617 1.2403219499 -4.1121737381 -3.7912733809 1.2235452575 -4.2153498243 -4.0204382622 1.2355273717 -4.3145460244 
-4.2478450942 1.2493184055 -4.4174826076 -4.4834828557 1.2739945955 -4.4972693924 -4.7217834282 1.3027450896 -4.567171082 
-4.9607669071 1.3311838138 -4.6348330046 -5.199558466 1.3700473821 -4.6978267701 -5.4302756926 1.4046385181 -4.7876767264 
-5.6506628044 1.4263130494 -4.9036928272 -5.8669179291 1.4821841882 -5.0156676629 -1.5694943891 1.9404801104 -4.6341551474 
-1.4895185985 2.1771164887 -4.6238063594 -1.381831314 2.3982210442 -4.5789039731 -1.2633369749 2.613011121 -4.5306928281 
-1.1462127147 2.8284302862 -4.4819435621 -1.0110186488 3.0229077887 -4.4019369025 -0.87475765502 3.2163027526 -4.3211202613 
-0.70885179817 3.3900448113 -4.2519180669 -0.54644443097 3.5633239055 -4.1738270778 -0.35505468441 3.7110359584 -4.1101787129 
-0.1483501848 3.8487343787 -4.0816761715 0.067808343634 3.9732436541 -4.0651555501 0.28749992486 4.0913120878 -4.0479667714 
0.50374755256 4.2143802933 -4.0236525716 0.73000447932 4.3146703998 -3.988301509 0.94938943915 4.4138568734 -3.9209792775 
1.1649049221 4.5245782177 -3.8593849555 1.3613181123 4.6701551205 -3.8071429788 1.5518888171 4.8233410947 -3.7550194358 
1.7445140987 4.9527028979 -3.6619548088 1.9520510821 5.0706612644 -3.5883375689 -1.9325266326 2.5204028889 -5.3477890193 
-2.0959306286 2.7087500879 -5.365801979 -2.2633102792 2.8933902522 -5.385602541 -2.4178782198 3.0885612485 -5.4083409222 
-2.5479432722 3.3001525355 -5.43684021 -2.6787178666 3.5102060499 -5.4725547247 -2.8107433098 3.7194501556 -5.5084181681 
-2.9413858908 3.9308341965 -5.5357915725 -3.0679742596 4.1429310387 -5.574396163 -3.2382620752 4.3194711085 -5.6227248669 
-3.4034421657 4.4981947511 -5.679938478 -3.5627383883 4.6713598955 -5.7644283958 -3.7260812147 4.8202216789 -5.8813013633 
-3.8851823596 4.9781299918 -5.9919891692 -4.0318882388 5.1192579924 -6.1371107474 -4.1776034972 5.267674107 -6.2758180666 
-4.3006385034 5.4063912843 -6.4435080543 -4.3993083167 5.5617470301 -6.612708705 -4.4888422999 5.7516090069 -6.7484882896 
-4.5691850661 5.9608949852 -6.8591427934 -4.6250139927 6.1476728782 -7.0152628647 -2.0326142165 2.9638917436 -6.2331597129 
-1.8379661322 2.9856981232 -6.3885193121 -1.6391598511 3.01010672 -6.5381197233 -1.4501474801 3.0433683747 -6.6983320385 
-1.259729815 3.1333976635 -6.8330014113 -1.0836211307 3.1947706356 -6.9994919203 -0.90834424086 3.2595978692 -7.1655504693 
-0.7571583047 3.3005064676 -7.3604075946 -0.60996519126 3.3440873206 -7.5577268704 -0.49002972453 3.3894289805 -7.7723419158 
-0.36913794691 3.4240836293 -7.988407261 -0.25986560906 3.4360709529 -8.212942025 -0.15574965957 3.4430170546 -8.4401239362 
-0.037148734201 3.3980559853 -8.65555913 0.11474077309 3.3523152081 -8.8487879034 0.25761539666 3.307527632 -9.0489900887 
0.37134473956 3.3170620605 -9.2714192487 0.45184428968 3.4066055838 -9.4905123337 0.52755006512 3.4859579188 -9.7151717258 
0.61963079677 3.5558990082 -9.9368232155 0.71155600796 3.6256716727 -10.158220968 -1.9618163346 3.4463146723 -7.10083102 
-2.0309726592 3.3358535308 -7.3141751996 -2.104616748 3.2322445112 -7.5294464686 -2.190188981 3.1546980797 -7.751175907 
-2.2976904794 3.0825969981 -7.9650563921 -2.3991063146 3.0081621014 -8.1810986901 -2.5152911443 2.932724715 -8.3892099249 
-2.6353777226 2.9151416721 -8.607773532 -2.7375207027 2.9036163259 -8.8356638083 -2.8064497636 2.8770738805 -9.0745032588 
-2.8451554793 2.8922226211 -9.3210238122 -2.8645235536 2.9469414014 -9.5641919285 -2.8916055665 2.9711691852 -9.8115369892 
-2.9352780296 2.950425028 -10.056817229 -2.9962578971 2.9862888521 -10.296598883 -3.0614373976 3.0026472426 -10.537397629 
-3.1480640416 3.0173237865 -10.77144981 -3.2331271899 3.0370317538 -11.005705774 -3.288509663 3.025893663 -11.249239601 
-3.320897827 3.0297427036 -11.497102853 -3.3208786737 3.0038642036 -11.745309351 -2.0235998482 3.9580476516 -7.9547512915 
-1.8641792939 4.1284428016 -8.0444763141 -1.703088157 4.2983186837 -8.1321793946 -1.5312487767 4.4435719007 -8.2411414537 
-1.3581433132 4.5892239683 -8.3475368188 -1.1862146091 4.7158958043 -8.4775166889 -1.0186464144 4.8089534404 -8.6380195752 
-0.86800983641 4.8930373924 -8.8189574385 -0.72884017182 4.9763139347 -9.0092120626 -0.59088419752 5.0655988889 -9.1976168027 
-0.45467165021 5.1541236562 -9.3876418208 -0.32760832179 5.2513809607 -9.5797249468 -0.20178605879 5.3528466093 -9.770443274 
-0.086646172337 5.4573309696 -9.9662131005 0.03316044533 5.5673355231 -10.15606929 0.1539268129 5.6761187869 -10.346021089 
0.26904779452 5.7614038547 -10.550895726 0.38126424888 5.8387279751 -10.76048687 0.52095386486 5.9122322598 -10.954352626 
0.65941290954 5.9812120167 -11.150747346 0.83217367741 6.082715558 -11.299200735 -2.0611579752 4.4358891617 -8.8240748816 
-2.2749039929 4.4474172946 -8.9532249573 -2.4981042812 4.4241463158 -9.0634070468 -2.7250734602 4.4038012478 -9.1662227557 
-2.9418091811 4.3703748547 -9.2862573487 -3.1667417949 4.3351481088 -9.3895259095 -3.3871943636 4.2952164277 -9.5004588882 
-3.6033343095 4.2456788972 -9.6159125883 -3.8152564157 4.1965541869 -9.7391026194 -4.0309626123 4.1245192607 -9.8429380958 
-4.2473437712 4.0832631956 -9.9611630135 -4.4655861722 4.0789046166 -10.083028748 -4.6819146229 4.0739012266 -10.208236445 
-4.9124821926 4.0776730423 -10.304799219 -5.1348570088 4.0688567566 -10.418692652 -5.3596202142 4.1049321565 -10.522037062 
[...]
CELL_DATA 451
SCALARS solution%20variable double
LOOKUP_TABLE default
7427.0346159 7187.9078422 6942.0687423 6687.349051 6483.4711756 6272.0206637 6053.3453104 5826.6284102 5646.1343471 
5458.8459893 5265.0664358 5064.0472281 4904.7458188 4739.3768015 4568.2040237 4390.5454366 4250.27933 4104.6138565 
3953.7786917 3797.1546898 3673.8320456 3545.7151109 3413.0040566 3275.1376728 3166.7562844 3054.1196637 2937.4027303 
2816.0959927 2720.7588772 2621.638177 2518.8874295 2412.0415296 2327.9653857 2240.5094877 2149.8095113 2055.4362893 
1980.9559552 1903.4319832 1822.9853583 1739.2130391 1672.7879953 1603.5879757 1531.7219694 1456.8012022 1397.0400081 
1334.7060394 1269.8980087 1202.2260544 1147.9760637 1091.295906 1032.2733112 970.49599678 921.0843059 869.35137698 
815.36396432 758.65272462 713.98126102 667.10985477 618.08154622 566.34412748 526.42042945 484.46199711 440.49029653 
393.8337355 358.7245783 321.87118658 283.31734578 242.25829242 212.73569108 182.52741771 152.24627463 121.91417387 
91.569551922 61.289021771 31.256252142 5.5680525753 6556.8618091 6423.4097643 6287.2542917 6148.21451 6006.0887498 
5860.6510548 5711.6468897 5558.7878184 5401.7448377 5240.139923 5073.5351649 4901.4185991 4723.1854098 4538.1125139 
4345.3234329 4143.738491 3932.0020681 3708.3724919 3470.5480427 652.85820099 5708.0569358 5586.6864636 5462.7579962 
5336.0918333 5206.4865841 5073.7153265 4937.5208455 4797.6096658 4653.6444802 4505.234417 4351.9223375 4193.1679774 
4028.3251356 3856.6101232 3677.0569918 3488.4520671 3289.234737 3077.3404316 2849.93838 580.00033265 4957.06891 
4847.4841198 4735.5131233 4620.9807672 4503.6898163 4383.4168633 4259.9072109 4132.8683893 4001.9618383 3866.7920737 
3726.8923421 3581.7052638 3430.5561391 3272.6152062 3106.8426857 2931.9059176 2746.0490279 2546.8769389 2330.9728613 
512.59266335 4294.670093 4196.4003372 4095.9360882 3993.1097846 3887.7319162 3779.5867961 3668.4272258 3553.967673 
3435.8754257 3313.7589338 3187.1521624 3055.4931501 2918.093912 2774.0969888 2622.4105975 2461.6078948 2289.7626077 
2104.1636963 1900.7783557 450.69667186 3711.7537306 3624.1825956 3534.6219044 3442.9142237 3348.8807949 3252.3172857 
3152.9883883 3050.6208546 2944.8943788 2835.4294527 2721.7708669 2603.3647824 2479.5260157 2349.3898909 2211.8386992 
2065.3841875 1907.9689093 1736.6052357 1546.6527002 394.24139834 3199.4794935 3121.8809217 3042.5048708 2961.20598 
2877.8186057 2792.152664 2703.9883088 2613.0690193 2519.092476 2421.698292 2320.4511646 2214.8171648 2104.129407 
1987.5366292 1863.9229747 1731.7763988 1588.9586609 1432.2684863 1256.5116609 343.02373759 2749.3821409 2680.9580423 
2610.9709696 2539.2890141 2465.7613586 2390.2143053 2312.4461642 2232.2205711 2149.2576041 2063.2217392 1973.7051529 
1880.203964 1782.0833814 1678.5246828 1568.4409 1450.3351596 1322.0453014 1180.2381892 1019.2667561 296.72451902 
2353.4362894 2293.3479379 2231.9106555 2169.0069265 2104.5019413 2038.2398888 1970.0391612 1899.686052 1826.9263253 
1751.4537045 1672.8937826 1590.7809078 1504.5238874 1413.3530883 1316.2348781 1211.7247519 1097.6949891 970.77405804 
825.00241479 254.90949292 2004.0847838 1951.4728623 1897.7248006 1842.7381992 1786.3951481 1728.5588418 1669.0691829 
1607.7369786 1544.3361345 1478.5929339 1410.1709454 1338.6491628 1263.4892472 1183.9843914 1099.1753689 1007.7036469 
907.53202769 795.34153634 665.02516947 217.03450335 1694.240655 1648.2264056 1601.2889412 1553.3418657 1504.2851894 
1454.0023094 1402.3560747 1349.1835728 1294.2890864 1237.4343712 1178.3248884 1116.5897224 1051.7512325 983.17718414 
909.99998124 830.97152819 744.18911538 646.48485966 531.80049596 182.4388696 1417.2721311 1376.9160386 1335.8525588 
1294.0131161 1251.3176462 1207.6719798 1162.9644236 1117.0612154 1069.8003637 1020.9831087 970.3617722 917.61991377 
862.3450754 803.98637571 741.78108627 674.62196392 600.79368541 517.37416694 418.56106933 150.25179488 1166.9958621 
1131.1432502 1094.8013339 1057.9240215 1020.4564063 982.33261742 943.47182816 903.77403948 863.11604383 821.34412117 
778.2635951 733.62342313 687.09258588 638.22220058 586.38110945 530.63789256 469.5219418 400.4650113 318.16322642 
119.01790364 937.90124754 904.83645229 871.47020529 837.78509782 803.75906188 769.36390666 734.56333369 699.31020782 
663.54274372 627.17907306 590.10932182 552.183722 513.19412867 472.84396916 430.6964842 386.07851147 337.88183368 
284.08505605 220.27650507 85.55672462 726.91612727 694.72614353 662.30581082 629.65697904 596.78154571 563.68144054 
530.35858837 496.81482919 463.05175366 429.07037027 394.87043233 360.44906146 325.79787177 290.89677208 255.70003119 
220.10308813 183.85677629 146.31583444 105.51130127 41.656641702 535.23159173 503.62206984 471.80259721 439.77566331 
407.54407614 375.11106323 342.48041928 309.65672884 276.64571553 243.45481442 210.09416215 176.57842761 142.93051449 
109.19015723 75.439608568 41.933365964 11.512148688 0.50885496693 0.00060518218447 8.6156850699e-10 363.51493387 332.62735013 
301.56317051 270.32669544 238.92360495 207.36172116 175.65240327 143.8133792 111.87544249 79.902326881 48.073209304 
17.289347816 1.3945224243 0.0052584917235 5.1432588089e-08 4.1242221583e-18 2.5576843169e-38 9.8235711275e-79 1.6402953559e-159 212.78459855 
182.61641699 152.36434158 122.04964142 91.709122114 61.416694116 31.381750163 6.492597297 0.15598079105 5.5450607242e-05 
5.2133443329e-12 8.9884675585e-26 7511.0070041 7594.0455901 7676.3348934 7757.8998199 7838.7639928 7918.9498417 7998.4786827 
8077.3707922 8155.6454745 8233.3211242 8310.4152829 8386.944692 8462.9253408 8538.3725121 8613.3008227 8685.4426376 
8757.2299622 8828.5736953 8899.4849767 8969.9745051 9040.0525606 9109.7290264 9179.0134088 9235.0146938 9290.8705099 
9346.5278416 9401.9904885 9457.2621266 9512.3463131 9567.2464909 9621.965993 9653.8903337 9685.8590005 9717.8542102 
9749.8758135 9781.9236418 9813.9975076 9846.0972053 9878.2225115 9878.2188097 8750.5300412 9977.9287189 11013.970552 
11839.421246 
