# vtk DataFile Version 5.1
vtk output
ASCII
DATASET UNSTRUCTURED_GRID
POINTS 474 double
0 0 -3 -0.11344901018 0.17758382911 -3.1345113591 -0.25315847539 0.33878440002 -3.2648786912 
-0.38126193464 0.50363826191 -3.4024021726 -0.5126230829 0.66576812132 -3.5400907975 -0.65843420624 0.83063257984 -3.6586607204 
-0.82297351213 0.96639713451 -3.7890248355 -0.97532665543 1.1205572503 -3.9136168835 -1.1248934303 1.2712178784 -4.0456439831 
-1.260480867 1.4416481412 -4.1684021702 -1.3678821889 1.6074581306 -4.3216079256 -1.4660695894 1.784059061 -4.4688198332 
-1.5694943891 1.9404801104 -4.6341551474 -1.6843141616 2.0801145574 -4.8068358964 -1.7920938126 2.214324268 -4.9881403376 
-1.8953148049 2.3800598251 -5.1442721788 -1.9325266326 2.5204028889 -5.3477890193 -1.973129178 2.6634701459 -5.548744719 
-1.9865147688 2.7616205381 -5.7782819197 -2.0072616269 2.8605132642 -6.0069515429 -2.0326142165 2.9638917436 -6.2331597129 
-1.9920842053 3.0592208557 -6.4606892244 -1.9658829099 3.1812169213 -6.6773235986 -1.95489032 3.3115244098 -6.8903942944 
-1.9618163346 3.4463146723 -7.10083102 -1.9595558315 3.5807523934 -7.3115948434 -1.9591600912 3.7034011527 -7.5294414069 
-1.9922335507 3.8261433401 -7.744709848 -2.0235998482 3.9580476516 -7.9547512915 -2.053410198 4.0821397433 -8.16972221 
-2.0922570198 4.2101350542 -8.380928566 -2.0673262565 4.3390293584 -8.5936836256 -2.0611579752 4.4358891617 -8.8240748816 
-2.0457609566 4.5389463916 -9.0513239502 -2.0376118219 4.6474567449 -9.2763997037 -2.0620327306 4.7344755807 -9.5094905474 
-2.0678249667 4.7919692102 -9.7527207523 -2.0538188065 4.7894724803 -10.002315612 -2.061454029 4.7954964511 -10.25212637 
-2.0748719743 4.7792135014 -10.501234428 -2.0879807121 4.7450832286 -10.748546549 -2.1011430636 4.7103243177 -10.995768253 
-2.1002295418 4.7008537725 -11.245587136 -2.1048346881 4.6894878057 -11.495286169 -2.0641472069 4.6880886783 -11.741949039 
-2.0210511199 4.6768675797 -11.987950694 -1.9835084387 4.6483785121 -12.233468351 -1.9506827239 4.6230643942 -12.480007736 
-1.9004712217 4.6381689642 -12.724447211 -1.8375331244 4.6537107888 -12.96589544 -1.7745908329 4.6759472614 -13.206818265 
-1.7324654219 4.637703043 -13.450257845 -1.6671038275 4.5609504363 -13.679030438 -1.598399743 4.4811403079 -13.905768376 
-1.5362405788 4.3949975328 -14.132077148 -1.4802902991 4.3079524624 -14.359657292 -1.4132617365 4.2082396067 -14.578893508 
-1.3346237404 4.1025622853 -14.791374964 -1.2639046148 4.0215870271 -15.017077895 -1.1811068059 3.9440623254 -15.239865784 
-1.0986307142 3.8389919159 -15.45118995 -0.9637992344 3.7108445705 -15.618219079 -0.83607035007 3.5887696699 -15.795089231 
-0.67316557472 3.4694079904 -15.942448736 -0.49469270494 3.3540019539 -16.074087946 -0.32610371771 3.2396122859 -16.218976721 
-0.14820477506 3.1356714575 -16.360568636 0.012364935668 3.0233302117 -16.515800116 0.1549159304 2.9000749565 -16.680078405 
0.27000396814 2.7652117596 -16.856335778 0.3829086188 2.6314831379 -17.034855232 0.49747072388 2.4976228367 -17.212216287 
0.60083379182 2.4004242314 -17.418052405 0.66797056282 2.2936634265 -17.633910656 0.75017747883 2.1834571348 -17.842708636 
0.82913521304 2.0737203209 -18.053002496 0.84139766799 2.0604437881 -18.08156333 -0.5126230829 0.66576812132 -3.5400907975 
-0.52277406038 0.77956108233 -3.7624601292 -0.53449030145 0.89788545023 -3.982373916 -0.53515452505 1.0082199251 -4.2067081811 
-0.53644590475 1.1144897642 -4.4329935178 -0.53696454607 1.2507070137 -4.6426231721 -0.51878168185 1.3625180934 -4.8654856093 
-0.50273855675 1.4613674127 -5.0945520412 -0.49082816941 1.5488159746 -5.328455636 -0.53649707025 1.6336061495 -5.5591610277 
-0.58531137867 1.7180366746 -5.7893536638 -0.67092791921 1.7968155302 -6.0106310912 -0.74962718774 1.8695191762 -6.2365085027 
-0.83361798078 1.9305568324 -6.4639287111 -0.91700232593 1.9931029055 -6.6911621587 -0.9753928223 2.0369035191 -6.930268947 
-1.0475750197 2.0677300162 -7.1676282894 -1.1009443958 2.0963864931 -7.4101783173 -1.0913733021 2.1254249614 -7.6583015962 
-1.0949643175 2.1422303757 -7.9077102622 -1.0664266342 2.165504346 -8.1548653099 -1.1248934303 1.2712178784 -4.0456439831 
-1.3701105494 1.2938911888 -4.0025802454 -1.6157087444 1.3095406912 -3.9585732041 -1.8617989566 1.2971902892 -3.9162993943 
-2.1048102068 1.2871864009 -3.8584594899 -2.3536918581 1.2700404026 -3.8422133105 -2.6027259385 1.2509731012 -3.853097466 
-2.8484396668 1.2518422052 -3.8991844311 -3.0916583036 1.2465957369 -3.9567793032 -3.3338077351 1.2274596438 -4.0159186538 
-3.5641759617 1.2403219499 -4.1121737381 -3.7912733809 1.2235452575 -4.2153498243 -4.0204382622 1.2355273717 -4.3145460244 
-4.2478450942 1.2493184055 -4.4174826076 -4.4834828557 1.2739945955 -4.4972693924 -4.7217834282 1.3027450896 -4.567171082 
-4.9607669071 1.3311838138 -4.6348330046 -5.199558466 1.3700473821 -4.6978267701 -5.4302756926 1.4046385181 -4.7876767264 
-5.6506628044 1.4263130494 -4.9036928272 -5.8669179291 1.4821841882 -5.0156676629 -1.5694943891 1.9404801104 -4.6341551474 
-1.4895185985 2.1771164887 -4.6238063594 -1.381831314 2.3982210442 -4.5789039731 -1.2633369749 2.613011121 -4.5306928281 
-1.1462127147 2.8284302862 -4.4819435621 -1.0110186488 3.0229077887 -4.4019369025 -0.87475765502 3.2163027526 -4.3211202613 
-0.70885179817 3.3900448113 -4.2519180669 -0.54644443097 3.5633239055 -4.1738270778 -0.35505468441 3.7110359584 -4.1101787129 
-0.1483501848 3.8487343787 -4.0816761715 0.067808343634 3.9732436541 -4.0651555501 0.28749992486 4.0913120878 -4.0479667714 
0.50374755256 4.2143802933 -4.0236525716 0.73000447932 4.3146703998 -3.988301509 0.94938943915 4.4138568734 -3.9209792775 
1.1649049221 4.5245782177 -3.8593849555 1.3613181123 4.6701551205 -3.8071429788 1.5518888171 4.8233410947 -3.7550194358 
1.7445140987 4.9527028979 -3.6619548088 1.9520510821 5.0706612644 -3.5883375689 -1.9325266326 2.5204028889 -5.3477890193 
-2.0959306286 2.7087500879 -5.365801979 -2.2633102792 2.8933902522 -5.385602541 -2.4178782198 3.0885612485 -5.4083409222 
-2.5479432722 3.3001525355 -5.43684021 -2.6787178666 3.5102060499 -5.4725547247 -2.8107433098 3.7194501556 -5.5084181681 
-2.9413858908 3.9308341965 -5.5357915725 -3.0679742596 4.1429310387 -5.574396163 -3.2382620752 4.3194711085 -5.6227248669 
-3.4034421657 4.4981947511 -5.679938478 -3.5627383883 4.6713598955 -5.7644283958 -3.7260812147 4.8202216789 -5.8813013633 
-3.8851823596 4.9781299918 -5.9919891692 -4.0318882388 5.1192579924 -6.1371107474 -4.1776034972 5.267674107 -6.2758180666 
-4.3006385034 5.4063912843 -6.4435080543 -4.3993083167 5.5617470301 -6.612708705 -4.4888422999 5.7516090069 -6.7484882896 
-4.5691850661 5.9608949852 -6.8591427934 -4.6250139927 6.1476728782 -7.0152628647 -2.0326142165 2.9638917436 -6.2331597129 
-1.8379661322 2.9856981232 -6.3885193121 -1.6391598511 3.01010672 -6.5381197233 -1.4501474801 3.0433683747 -6.6983320385 
-1.259729815 3.1333976635 -6.8330014113 -1.0836211307 3.1947706356 -6.9994919203 -0.90834424086 3.2595978692 -7.1655504693 
-0.7571583047 3.3005064676 -7.3604075946 -0.60996519126 3.3440873206 -7.5577268704 -0.49002972453 3.3894289805 -7.7723419158 
-0.36913794691 3.4240836293 -7.988407261 -0.25986560906 3.4360709529 -8.212942025 -0.15574965957 3.4430170546 -8.4401239362 
-0.037148734201 3.3980559853 -8.65555913 0.11474077309 3.3523152081 -8.8487879034 0.25761539666 3.307527632 -9.0489900887 
0.37134473956 3.3170620605 -9.2714192487 0.45184428968 3.4066055838 -9.4905123337 0.52755006512 3.4859579188 -9.7151717258 
0.61963079677 3.5558990082 -9.9368232155 0.71155600796 3.6256716727 -10.158220968 -1.9618163346 3.4463146723 -7.10083102 
-2.0309726592 3.3358535308 -7.3141751996 -2.104616748 3.2322445112 -7.5294464686 -2.190188981 3.1546980797 -7.751175907 
-2.2976904794 3.0825969981 -7.9650563921 -2.3991063146 3.0081621014 -8.1810986901 -2.5152911443 2.932724715 -8.3892099249 
-2.6353777226 2.9151416721 -8.607773532 -2.7375207027 2.9036163259 -8.8356638083 -2.8064497636 2.8770738805 -9.0745032588 
-2.8451554793 2.8922226211 -9.3210238122 -2.8645235536 2.9469414014 -9.5641919285 -2.8916055665 2.9711691852 -9.8115369892 
-2.9352780296 2.950425028 -10.056817229 -2.9962578971 2.9862888521 -10.296598883 -3.0614373976 3.0026472426 -10.537397629 
-3.1480640416 3.0173237865 -10.77144981 -3.2331271899 3.0370317538 -11.005705774 -3.288509663 3.025893663 -11.249239601 
-3.320897827 3.0297427036 -11.497102853 -3.3208786737 3.0038642036 -11.745309351 -2.0235998482 3.9580476516 -7.9547512915 
-1.8641792939 4.1284428016 -8.0444763141 -1.703088157 4.2983186837 -8.1321793946 -1.5312487767 4.4435719007 -8.2411414537 
-1.3581433132 4.5892239683 -8.3475368188 -1.1862146091 4.7158958043 -8.4775166889 -1.0186464144 4.8089534404 -8.6380195752 
-0.86800983641 4.8930373924 -8.8189574385 -0.72884017182 4.9763139347 -9.0092120626 -0.59088419752 5.0655988889 -9.1976168027 
-0.45467165021 5.1541236562 -9.3876418208 -0.32760832179 5.2513809607 -9.5797249468 -0.20178605879 5.3528466093 -9.770443274 
-0.086646172337 5.4573309696 -9.9662131005 0.03316044533 5.5673355231 -10.15606929 0.1539268129 5.6761187869 -10.346021089 
0.26904779452 5.7614038547 -10.550895726 0.38126424888 5.8387279751 -10.76048687 0.52095386486 5.9122322598 -10.954352626 
0.65941290954 5.9812120167 -11.150747346 0.83217367741 6.082715558 -11.299200735 -2.0611579752 4.4358891617 -8.8240748816 
-2.2749039929 4.4474172946 -8.9532249573 -2.4981042812 4.4241463158 -9.0634070468 -2.7250734602 4.4038012478 -9.1662227557 
-2.9418091811 4.3703748547 -9.2862573487 -3.1667417949 4.3351481088 -9.3895259095 -3.3871943636 4.2952164277 -9.5004588882 
-3.6033343095 4.2456788972 -9.6159125883 -3.8152564157 4.1965541869 -9.7391026194 -4.0309626123 4.1245192607 -9.8429380958 
-4.2473437712 4.0832631956 -9.9611630135 -4.4655861722 4.0789046166 -10.083028748 -4.6819146229 4.0739012266 -10.208236445 
-4.9124821926 4.0776730423 -10.304799219 -5.1348570088 4.0688567566 -10.418692652 -5.3596202142 4.1049321565 -10.522037062 
[...]
CELL_DATA 451
SCALARS solution%20variable double
LOOKUP_TABLE default
7467.9447554 7228.1724504 6981.6711091 6726.2738375 6521.8315406 6309.8004784 6090.5290724 5863.2020807 5682.217408 
5494.4243894 5300.1265518 5098.5772779 4938.8697734 4773.0836152 4601.4828634 4423.3878791 4282.8120042 4136.8297742 
3985.6708451 3828.7192826 3705.1966185 3576.8779427 3443.9631483 3305.8953309 3197.4392297 3084.7328529 2967.9505516 
2846.5886032 2751.3201532 2652.2814307 2549.6250723 2442.8936978 2359.049993 2271.8502279 2181.4288058 2087.3669276 
2013.3040015 1936.2339781 1856.2761943 1773.0416409 1707.2364342 1638.7085858 1567.5651886 1493.4367931 1434.4974114 
1373.0562864 1309.2105194 1242.5976175 1189.3081373 1133.677533 1075.7938298 1015.2847484 966.75785363 916.00461909 
863.09784763 807.62749399 763.55769259 717.36841319 669.11381986 618.32254221 578.7751901 537.2669302 493.83891059 
447.94452257 413.18013204 376.77164939 338.79688515 298.67988056 269.97075186 240.66870473 211.21834676 181.58291229 
151.67216186 121.25228209 89.639106572 13.101092672 6595.4974443 6461.7414962 6325.2665784 6185.8916289 6043.4148333 
5897.6101414 5748.2229931 5594.9650246 5437.5074384 5275.4726019 5108.4232589 4935.8484674 4757.1449636 4571.5919876 
4378.3165299 4176.2441261 3964.0270957 3739.9361337 3501.6893986 656.32927467 5744.3291508 5622.6400797 5498.3750379 
5371.3539756 5241.3751698 5108.2113954 4971.6051799 4831.2628597 4686.8470436 4537.9669301 4384.1656797 4224.903669 
4059.5358527 3887.2804846 3707.1747875 3518.0102254 3318.2345825 3105.7973179 2877.8919776 583.443604 4991.2909864 
4881.3785841 4769.059415 4654.157787 4536.4759194 4415.7898611 4291.8443837 4164.3465176 4032.9572613 3897.2807916 
3756.8501857 3611.1081699 3459.3805984 3300.8389952 3134.4460822 2958.8737729 2772.3744297 2572.568014 2356.0662858 
516.01378999 4327.2040607 4228.6035721 4127.7852617 4024.5808217 3918.7999622 3810.2261851 3698.6114539 3583.6693815 
3465.0664018 3342.4101409 3215.2338228 3082.9749163 2944.94519 2800.2875316 2647.9115859 2486.3939389 2313.8155791 
2127.4804655 1923.3876939 454.11050038 3743.0154244 3655.116311 3565.201265 3473.1118803 3378.6683619 3281.6652735 
3181.8661315 3078.9964395 2972.7345744 2862.6996539 2748.4350658 2629.385598 2504.864838 2374.0072483 2235.6950672 
2088.4417012 1930.1950255 1757.9809344 1567.192503 397.67485449 3229.9461707 3152.0283666 3072.3032026 2990.6240894 
2906.8240599 2820.7115987 2732.0653074 2640.6269784 2546.0924578 2448.0993655 2346.210245 2239.888869 2128.465965 
2011.0879407 1886.6370027 1753.6003489 1609.8420479 1452.1710906 1275.4258029 346.51912831 2779.6030708 2710.8752881 
2640.5504117 2568.4949982 2494.5565645 2418.5595966 2340.3004129 2259.5404545 2175.997368 2089.3329248 1999.1362822 
1904.9001887 1805.9861109 1701.5712428 1590.5643634 1471.4647241 1342.1082605 1199.1666879 1037.0207164 300.34287022 
2384.0464333 2323.6794203 2261.9239933 2198.6607009 2133.7526267 2067.0416527 1998.3436264 1927.4420152 1854.0794185 
1777.9459881 1698.6632528 1615.7609001 1528.642361 1436.5317913 1338.388448 1232.7599869 1117.5111257 989.26708381 
842.08750174 258.73722681 2035.8203752 1982.9709215 1928.9388555 1873.6192693 1816.8915226 1758.6158177 1698.6287517 
1636.7374486 1572.7116706 1506.2729896 1437.0795546 1364.7040468 1288.6006786 1208.0537433 1122.093281 1029.3478213 
927.76508346 814.01300841 681.98631885 221.19545921 1727.9536651 1681.7740484 1634.615549 1586.3883418 1536.9887102 
1486.2959721 1434.168477 1380.4383024 1324.9040945 1267.3211893 1207.3876347 1144.7238168 1078.841705 1009.096404 
934.60571155 854.10251781 765.65919042 666.0773891 549.27377815 187.11281184 1453.9427498 1413.56399 1372.4107154 
1330.409219 1287.4738559 1243.5043524 1198.3822923 1151.966449 1104.0864595 1054.5340616 1003.0506335 949.30892735 
892.88175073 833.199977 769.47790842 700.57842164 624.74597389 539.00320296 437.47832761 155.7467751 1207.7307867 
1172.181115 1136.0647159 1099.3267122 1061.9025247 1023.715603 984.6744531 944.66766374 903.55768857 861.1746161 
817.3052783 771.67719848 723.9340258 673.59617512 619.99404139 562.14599943 498.51233947 426.42368819 340.42242425 
126.02077729 983.74492478 951.70192677 919.29277987 886.48582321 853.24261089 819.51610401 785.24827476 750.36688147 
714.78104655 678.37505976 640.99946712 602.45785156 562.48646643 520.7213541 476.64202653 429.46728852 377.94135329 
319.82329406 250.33361615 95.826601546 777.5694899 747.08865798 716.36949962 685.40907592 654.20298631 622.74472177 
591.02472099 559.02897566 526.73694028 494.11834783 461.12826332 427.69921573 393.7283061 359.05526284 323.4231453 
286.40288201 247.23299415 204.42221468 154.46552327 60.471625871 588.75028379 558.73106587 528.50214623 498.06523083 
467.42218499 436.57507711 405.52623818 374.27834514 342.83454066 311.19861103 279.37526007 247.37055006 215.19265266 
182.85322508 150.37019847 117.77426621 85.127123499 52.587421176 20.739864865 2.8102414689 418.90964716 389.38053137 
359.67286148 329.78913833 299.732386 269.50638721 239.11605841 208.5680836 177.87206737 147.04283814 116.10562331 
85.109457507 54.167899793 23.59176066 3.0739660745 0.029398231104 1.7528235307e-06 4.9426914931e-15 4.171177704e-32 270.07209578 
240.88222994 211.57393248 182.15646872 152.64253139 123.05119833 93.414640176 63.797643853 34.401575192 8.4481697505 
0.2887297458 0.00044099410101 7552.1433572 7635.3907798 7717.8719265 7799.6120891 7880.6352634 7960.9642375 8040.6206745 
8119.6251865 8197.9974029 8275.7560338 8352.918927 8429.503122 8505.5248981 8580.9998204 8655.9427814 8728.0951232 
8799.87962 8871.2078975 8942.0913503 9012.5409262 9082.5671502 9152.1801453 9221.3896532 9277.3616694 9333.1752127 
9388.7778101 9444.1734809 9499.3661186 9554.359496 9609.1572697 9663.7629843 9695.6577633 9727.5836486 9759.52311 
9791.476145 9823.4427339 9855.4228407 9887.4164135 9919.4233847 9919.4202712 8792.6500632 10016.84451 11050.080633 
11872.982602 
