# vtk DataFile Version 5.1
vtk output
ASCII
DATASET UNSTRUCTURED_GRID
POINTS 474 double
0 0 -3 -0.11344901018 0.17758382911 -3.1345113591 -0.25315847539 0.33878440002 -3.2648786912 
-0.38126193464 0.50363826191 -3.4024021726 -0.5126230829 0.66576812132 -3.5400907975 -0.65843420624 0.83063257984 -3.6586607204 
-0.82297351213 0.96639713451 -3.7890248355 -0.97532665543 1.1205572503 -3.9136168835 -1.1248934303 1.2712178784 -4.0456439831 
-1.260480867 1.4416481412 -4.1684021702 -1.3678821889 1.6074581306 -4.3216079256 -1.4660695894 1.784059061 -4.4688198332 
-1.5694943891 1.9404801104 -4.6341551474 -1.6843141616 2.0801145574 -4.8068358964 -1.7920938126 2.214324268 -4.9881403376 
-1.8953148049 2.3800598251 -5.1442721788 -1.9325266326 2.5204028889 -5.3477890193 -1.973129178 2.6634701459 -5.548744719 
-1.9865147688 2.7616205381 -5.7782819197 -2.0072616269 2.8605132642 -6.0069515429 -2.0326142165 2.9638917436 -6.2331597129 
-1.9920842053 3.0592208557 -6.4606892244 -1.9658829099 3.1812169213 -6.6773235986 -1.95489032 3.3115244098 -6.8903942944 
-1.9618163346 3.4463146723 -7.10083102 -1.9595558315 3.5807523934 -7.3115948434 -1.9591600912 3.7034011527 -7.5294414069 
-1.9922335507 3.8261433401 -7.744709848 -2.0235998482 3.9580476516 -7.9547512915 -2.053410198 4.0821397433 -8.16972221 
-2.0922570198 4.2101350542 -8.380928566 -2.0673262565 4.3390293584 -8.5936836256 -2.0611579752 4.4358891617 -8.8240748816 
-2.0457609566 4.5389463916 -9.0513239502 -2.0376118219 4.6474567449 -9.2763997037 -2.0620327306 4.7344755807 -9.5094905474 
-2.0678249667 4.7919692102 -9.7527207523 -2.0538188065 4.7894724803 -10.002315612 -2.061454029 4.7954964511 -10.25212637 
-2.0748719743 4.7792135014 -10.501234428 -2.0879807121 4.7450832286 -10.748546549 -2.1011430636 4.7103243177 -10.995768253 
-2.1002295418 4.7008537725 -11.245587136 -2.1048346881 4.6894878057 -11.495286169 -2.0641472069 4.6880886783 -11.741949039 
-2.0210511199 4.6768675797 -11.987950694 -1.9835084387 4.6483785121 -12.233468351 -1.9506827239 4.6230643942 -12.480007736 
-1.9004712217 4.6381689642 -12.724447211 -1.8375331244 4.6537107888 -12.96589544 -1.7745908329 4.6759472614 -13.206818265 
-1.7324654219 4.637703043 -13.450257845 -1.6671038275 4.5609504363 -13.679030438 -1.598399743 4.4811403079 -13.905768376 
-1.5362405788 4.3949975328 -14.132077148 -1.4802902991 4.3079524624 -14.359657292 -1.4132617365 4.2082396067 -14.578893508 
-1.3346237404 4.1025622853 -14.791374964 -1.2639046148 4.0215870271 -15.017077895 -1.1811068059 3.9440623254 -15.239865784 
-1.0986307142 3.8389919159 -15.45118995 -0.9637992344 3.7108445705 -15.618219079 -0.83607035007 3.5887696699 -15.795089231 
-0.67316557472 3.4694079904 -15.942448736 -0.49469270494 3.3540019539 -16.074087946 -0.32610371771 3.2396122859 -16.218976721 
-0.14820477506 3.1356714575 -16.360568636 0.012364935668 3.0233302117 -16.515800116 0.1549159304 2.9000749565 -16.680078405 
0.27000396814 2.7652117596 -16.856335778 0.3829086188 2.6314831379 -17.034855232 0.49747072388 2.4976228367 -17.212216287 
0.60083379182 2.4004242314 -17.418052405 0.66797056282 2.2936634265 -17.633910656 0.75017747883 2.1834571348 -17.842708636 
0.82913521304 2.0737203209 -18.053002496 0.84139766799 2.0604437881 -18.08156333 -0.5126230829 0.66576812132 -3.5400907975 
-0.52277406038 0.77956108233 -3.7624601292 -0.53449030145 0.89788545023 -3.982373916 -0.53515452505 1.0082199251 -4.2067081811 
-0.53644590475 1.1144897642 -4.4329935178 -0.53696454607 1.2507070137 -4.6426231721 -0.51878168185 1.3625180934 -4.8654856093 
-0.50273855675 1.4613674127 -5.0945520412 -0.49082816941 1.5488159746 -5.328455636 -0.53649707025 1.6336061495 -5.5591610277 
-0.58531137867 1.7180366746 -5.7893536638 -0.67092791921 1.7968155302 -6.0106310912 -0.74962718774 1.8695191762 -6.2365085027 
-0.83361798078 1.9305568324 -6.4639287111 -0.91700232593 1.9931029055 -6.6911621587 -0.9753928223 2.0369035191 -6.930268947 
-1.0475750197 2.0677300162 -7.1676282894 -1.1009443958 2.0963864931 -7.4101783173 -1.0913733021 2.1254249614 -7.6583015962 
-1.0949643175 2.1422303757 -7.9077102622 -1.0664266342 2.165504346 -8.1548653099 -1.1248934303 1.2712178784 -4.0456439831 
-1.3701105494 1.2938911888 -4.0025802454 -1.6157087444 1.3095406912 -3.9585732041 -1.8617989566 1.2971902892 -3.9162993943 
-2.1048102068 1.2871864009 -3.8584594899 -2.3536918581 1.2700404026 -3.8422133105 -2.6027259385 1.2509731012 -3.853097466 
-2.8484396668 1.2518422052 -3.8991844311 -3.0916583036 1.2465957369 -3.9567793032 -3.3338077351 1.2274596438 -4.0159186538 
-3.5641759617 1.2403219499 -4.1121737381 -3.7912733809 1.2235452575 -4.2153498243 -4.0204382622 1.2355273717 -4.3145460244 
-4.2478450942 1.2493184055 -4.4174826076 -4.4834828557 1.2739945955 -4.4972693924 -4.7217834282 1.3027450896 -4.567171082 
-4.9607669071 1.3311838138 -4.6348330046 -5.199558466 1.3700473821 -4.6978267701 -5.4302756926 1.4046385181 -4.7876767264 
-5.6506628044 1.4263130494 -4.9036928272 -5.8669179291 1.4821841882 -5.0156676629 -1.5694943891 1.9404801104 -4.6341551474 
-1.4895185985 2.1771164887 -4.6238063594 -1.381831314 2.3982210442 -4.5789039731 -1.2633369749 2.613011121 -4.5306928281 
-1.1462127147 2.8284302862 -4.4819435621 -1.0110186488 3.0229077887 -4.4019369025 -0.87475765502 3.2163027526 -4.3211202613 
-0.70885179817 3.3900448113 -4.2519180669 -0.54644443097 3.5633239055 -4.1738270778 -0.35505468441 3.7110359584 -4.1101787129 
-0.1483501848 3.8487343787 -4.0816761715 0.067808343634 3.9732436541 -4.0651555501 0.28749992486 4.0913120878 -4.0479667714 
0.50374755256 4.2143802933 -4.0236525716 0.73000447932 4.3146703998 -3.988301509 0.94938943915 4.4138568734 -3.9209792775 
1.1649049221 4.5245782177 -3.8593849555 1.3613181123 4.6701551205 -3.8071429788 1.5518888171 4.8233410947 -3.7550194358 
1.7445140987 4.9527028979 -3.6619548088 1.9520510821 5.0706612644 -3.5883375689 -1.9325266326 2.5204028889 -5.3477890193 
-2.0959306286 2.7087500879 -5.365801979 -2.2633102792 2.8933902522 -5.385602541 -2.4178782198 3.0885612485 -5.4083409222 
-2.5479432722 3.3001525355 -5.43684021 -2.6787178666 3.5102060499 -5.4725547247 -2.8107433098 3.7194501556 -5.5084181681 
-2.9413858908 3.9308341965 -5.5357915725 -3.0679742596 4.1429310387 -5.574396163 -3.2382620752 4.3194711085 -5.6227248669 
-3.4034421657 4.4981947511 -5.679938478 -3.5627383883 4.6713598955 -5.7644283958 -3.7260812147 4.8202216789 -5.8813013633 
-3.8851823596 4.9781299918 -5.9919891692 -4.0318882388 5.1192579924 -6.1371107474 -4.1776034972 5.267674107 -6.2758180666 
-4.3006385034 5.4063912843 -6.4435080543 -4.3993083167 5.5617470301 -6.612708705 -4.4888422999 5.7516090069 -6.7484882896 
-4.5691850661 5.9608949852 -6.8591427934 -4.6250139927 6.1476728782 -7.0152628647 -2.0326142165 2.9638917436 -6.2331597129 
-1.8379661322 2.9856981232 -6.3885193121 -1.6391598511 3.01010672 -6.5381197233 -1.4501474801 3.0433683747 -6.6983320385 
-1.259729815 3.1333976635 -6.8330014113 -1.0836211307 3.1947706356 -6.9994919203 -0.90834424086 3.2595978692 -7.1655504693 
-0.7571583047 3.3005064676 -7.3604075946 -0.60996519126 3.3440873206 -7.5577268704 -0.49002972453 3.3894289805 -7.7723419158 
-0.36913794691 3.4240836293 -7.988407261 -0.25986560906 3.4360709529 -8.212942025 -0.15574965957 3.4430170546 -8.4401239362 
-0.037148734201 3.3980559853 -8.65555913 0.11474077309 3.3523152081 -8.8487879034 0.25761539666 3.307527632 -9.0489900887 
0.37134473956 3.3170620605 -9.2714192487 0.45184428968 3.4066055838 -9.4905123337 0.52755006512 3.4859579188 -9.7151717258 
0.61963079677 3.5558990082 -9.9368232155 0.71155600796 3.6256716727 -10.158220968 -1.9618163346 3.4463146723 -7.10083102 
-2.0309726592 3.3358535308 -7.3141751996 -2.104616748 3.2322445112 -7.5294464686 -2.190188981 3.1546980797 -7.751175907 
-2.2976904794 3.0825969981 -7.9650563921 -2.3991063146 3.0081621014 -8.1810986901 -2.5152911443 2.932724715 -8.3892099249 
-2.6353777226 2.9151416721 -8.607773532 -2.7375207027 2.9036163259 -8.8356638083 -2.8064497636 2.8770738805 -9.0745032588 
-2.8451554793 2.8922226211 -9.3210238122 -2.8645235536 2.9469414014 -9.5641919285 -2.8916055665 2.9711691852 -9.8115369892 
-2.9352780296 2.950425028 -10.056817229 -2.9962578971 2.9862888521 -10.296598883 -3.0614373976 3.0026472426 -10.537397629 
-3.1480640416 3.0173237865 -10.77144981 -3.2331271899 3.0370317538 -11.005705774 -3.288509663 3.025893663 -11.249239601 
-3.320897827 3.0297427036 -11.497102853 -3.3208786737 3.0038642036 -11.745309351 -2.0235998482 3.9580476516 -7.9547512915 
-1.8641792939 4.1284428016 -8.0444763141 -1.703088157 4.2983186837 -8.1321793946 -1.5312487767 4.4435719007 -8.2411414537 
-1.3581433132 4.5892239683 -8.3475368188 -1.1862146091 4.7158958043 -8.4775166889 -1.0186464144 4.8089534404 -8.6380195752 
-0.86800983641 4.8930373924 -8.8189574385 -0.72884017182 4.9763139347 -9.0092120626 -0.59088419752 5.0655988889 -9.1976168027 
-0.45467165021 5.1541236562 -9.3876418208 -0.32760832179 5.2513809607 -9.5797249468 -0.20178605879 5.3528466093 -9.770443274 
-0.086646172337 5.4573309696 -9.9662131005 0.03316044533 5.5673355231 -10.15606929 0.1539268129 5.6761187869 -10.346021089 
0.26904779452 5.7614038547 -10.550895726 0.38126424888 5.8387279751 -10.76048687 0.52095386486 5.9122322598 -10.954352626 
0.65941290954 5.9812120167 -11.150747346 0.83217367741 6.082715558 -11.299200735 -2.0611579752 4.4358891617 -8.8240748816 
-2.2749039929 4.4474172946 -8.9532249573 -2.4981042812 4.4241463158 -9.0634070468 -2.7250734602 4.4038012478 -9.1662227557 
-2.9418091811 4.3703748547 -9.2862573487 -3.1667417949 4.3351481088 -9.3895259095 -3.3871943636 4.2952164277 -9.5004588882 
-3.6033343095 4.2456788972 -9.6159125883 -3.8152564157 4.1965541869 -9.7391026194 -4.0309626123 4.1245192607 -9.8429380958 
-4.2473437712 4.0832631956 -9.9611630135 -4.4655861722 4.0789046166 -10.083028748 -4.6819146229 4.0739012266 -10.208236445 
-4.9124821926 4.0776730423 -10.304799219 -5.1348570088 4.0688567566 -10.418692652 -5.3596202142 4.1049321565 -10.522037062 
[...]
CELL_DATA 451
SCALARS solution%20variable double
LOOKUP_TABLE default
7491.6044282 7251.4585575 7004.5739921 6748.784608 6544.0154105 6331.6480956 6112.0314498 5884.3510616 5703.081912 
5514.9962474 5320.3978455 5118.5411325 4958.5977887 4792.5693401 4620.7199756 4442.371421 4301.615244 4155.4485897 
4004.101109 3846.9586878 3723.319168 3594.882546 3461.8485632 3323.662755 3215.1625257 3102.4147868 2985.5935705 
2864.1984235 2768.9695434 2669.9779969 2567.3759094 2460.7102733 2377.0025764 2289.9524593 2199.6935943 2105.8130358 
2031.9965241 1955.1940551 1875.5239989 1792.6052312 1727.1703353 1659.0432525 1588.3299121 1514.6716404 1456.2341815 
1395.336864 1332.0756408 1266.1031253 1213.4318905 1158.4742835 1101.3179098 1041.612423 993.73402901 943.69472202 
891.56983701 836.98252792 793.42870027 747.81704528 700.20812826 650.17725887 611.01560555 569.95427976 527.04508139 
481.80904359 447.4113149 411.43902429 373.98006185 334.5558614 306.31947063 277.46609989 248.33300938 218.81379995 
188.7106082 157.6309082 124.708279 16.302110446 6617.8415023 6483.910379 6347.2513716 6207.6833179 6065.0043243 
5918.9882906 5769.3806475 5615.8930781 5458.1969096 5295.9147418 5128.6097018 4955.7714444 4776.7976079 4590.9687786 
4397.4139523 4195.0616696 3982.5688188 3758.2131953 3519.7243429 658.33222466 5765.3041581 5643.4312799 5518.9721236 
5391.7464431 5261.552329 5128.1623873 4991.3190036 4850.7284131 4706.053184 4556.9025641 4402.8198968 4243.2659394 
4077.5963249 3905.0304404 3724.6073493 3535.1214879 3335.0254822 3122.2768566 2894.0830946 585.43021106 5011.0768771 
4900.9752484 4788.4550685 4673.3403407 4555.4329767 4434.5087192 4310.3120418 4182.5496961 4050.8824367 3914.9142572 
3774.1781504 3628.1169199 3476.0567575 3317.1699489 3150.420681 2974.4835266 2787.6156141 2587.4455694 2370.6015339 
517.98703685 4346.0090209 4247.2171916 4146.1941782 4042.7712509 3936.7576783 3827.9365046 3716.0592205 3600.8389583 
3481.9416727 3358.9745307 3231.4703474 3098.866284 2960.4739929 2815.4365917 2662.664584 2500.7365736 2327.7377766 
2140.9808243 1936.4831488 456.07862152 3761.0789803 3672.9896506 3582.8692953 3490.5589577 3395.878257 3298.6211327 
3198.5504373 3095.3909704 2988.8203671 2878.4569731 2763.8433916 2644.4236472 2519.5106533 2388.2384176 2249.4892003 
2101.7774287 1943.0541217 1770.3530433 1579.0866062 399.6529413 3247.5438735 3169.4401784 3089.5120479 3007.6121994 
2923.5729184 2837.2018816 2748.2768147 2656.538559 2561.6819265 2463.3434158 2361.0843605 2254.3672463 2142.5214716 
2024.6921585 1899.7604709 1766.2132659 1621.9160669 1463.6839312 1286.3740481 348.53097527 2797.0530974 2728.1472232 
2657.6247907 2585.3514936 2511.1739124 2434.9155111 2356.3714877 2275.3020482 2191.423472 2104.3960092 2013.8071218 
1919.1476682 1819.7770221 1714.8701043 1603.333347 1483.6639082 1353.6968184 1210.1068512 1047.2910187 302.42279973 
2401.7182602 2341.1855705 2279.2419855 2215.7669735 2150.6224415 2083.6489814 2014.6610179 1943.4404362 1869.728064 
1793.2120528 1713.5116555 1630.1539514 1542.5393673 1449.8885969 1351.156952 1244.8877791 1128.941736 999.94261136 
851.96169621 260.93358471 2054.1451859 2001.1501682 1946.9461255 1891.4267652 1834.4699387 1775.9341926 1715.6542938 
1653.4353239 1589.0447448 1522.2015101 1452.5607549 1379.6916478 1303.044258 1221.897934 1135.2767676 1041.8021571 
939.41360283 824.77221054 691.77486583 223.57688338 1747.4345672 1701.1437435 1653.8424114 1605.4388923 1555.8274524 
1504.8852002 1452.4680434 1398.4053368 1342.4926566 1284.4818352 1224.0668658 1160.8633689 1094.3776129 1023.957752 
948.71293824 867.36619984 777.97634973 677.32878353 559.32797577 189.77566265 1475.1648869 1434.7398297 1393.5018665 
1351.3746168 1308.2695307 1264.0831582 1218.6935834 1171.9556876 1123.6947327 1073.697475 1021.6995325 967.36687705 
910.26547092 849.81644861 785.22181401 715.32842982 638.35926068 551.3077339 448.26685469 158.84214347 1231.3691763 
1195.9146882 1159.847524 1123.1084427 1085.6280977 1047.3247078 1008.1010107 967.84020401 926.3982641 883.59741617 
839.21548925 792.96952309 744.49069667 693.28419131 638.66116456 579.61468131 514.57004712 440.80687156 352.79194623 
129.84780289 1010.5348977 978.92303541 946.89893526 914.42331263 881.4491706 847.91986902 813.76658103 778.90488643 
743.23012025 706.6108765 668.87969119 629.81924953 589.14117086 546.45180668 501.19374678 452.53782501 399.16201045 
338.72597043 266.28537858 101.13394167 807.90411254 778.40740717 748.65249318 718.62868489 688.32206392 657.71435506 
626.78137283 595.49084626 563.79932628 531.64770796 498.95460196 465.60625192 431.44066538 396.22152594 359.59279519 
320.99343668 279.47919296 233.28619341 178.44136114 69.08496852 621.62617692 592.6561718 563.47757535 534.09186275 
504.50059863 474.70546228 444.70827943 414.51106245 384.11606027 353.52581767 322.74323626 291.77160794 260.61452358 
229.27534957 197.75527292 166.04645428 134.10699213 101.75762958 68.140160275 24.754955648 453.64888664 425.03190802 
396.23441422 367.25865372 338.10713458 308.78274632 279.28894154 249.63001762 219.81157409 189.84129676 159.73039506 
129.49649032 99.170336722 68.816366417 38.64009341 10.884498862 0.50054514778 0.00062809420337 7.957261473e-10 306.66149354 
278.23186178 249.66092586 220.95613601 192.12641178 163.18321777 134.1427798 105.03135854 75.900498143 46.883782874 
18.489275234 3.5536567798 7575.9339458 7659.3022902 7741.8945853 7823.7363436 7904.8517732 7985.2638674 8064.9944872 
8144.0644362 8222.4935295 8300.300657 8377.5038416 8454.1202923 8530.1664541 8605.6580531 8680.6101389 8752.7692006 
8824.5527202 8895.8727382 8966.7407941 9037.1679783 9107.1649548 9176.7419838 9245.9089411 9301.8645655 9357.6542183 
9413.2257362 9468.5832636 9523.7308182 9578.6722956 9633.4114742 9687.9520197 9719.8300068 9751.7314761 9783.6390421 
9815.5527859 9847.4727728 9879.3990532 9911.3316627 9943.2706224 9943.2678483 8817.0180544 10039.375858 11071.000035 
11892.435213 
