# vtk DataFile Version 5.1
vtk output
ASCII
DATASET UNSTRUCTURED_GRID
POINTS 474 double
0 0 -3 -0.11344901018 0.17758382911 -3.1345113591 -0.25315847539 0.33878440002 -3.2648786912 
-0.38126193464 0.50363826191 -3.4024021726 -0.5126230829 0.66576812132 -3.5400907975 -0.65843420624 0.83063257984 -3.6586607204 
-0.82297351213 0.96639713451 -3.7890248355 -0.97532665543 1.1205572503 -3.9136168835 -1.1248934303 1.2712178784 -4.0456439831 
-1.260480867 1.4416481412 -4.1684021702 -1.3678821889 1.6074581306 -4.3216079256 -1.4660695894 1.784059061 -4.4688198332 
-1.5694943891 1.9404801104 -4.6341551474 -1.6843141616 2.0801145574 -4.8068358964 -1.7920938126 2.214324268 -4.9881403376 
-1.8953148049 2.3800598251 -5.1442721788 -1.9325266326 2.5204028889 -5.3477890193 -1.973129178 2.6634701459 -5.548744719 
-1.9865147688 2.7616205381 -5.7782819197 -2.0072616269 2.8605132642 -6.0069515429 -2.0326142165 2.9638917436 -6.2331597129 
-1.9920842053 3.0592208557 -6.4606892244 -1.9658829099 3.1812169213 -6.6773235986 -1.95489032 3.3115244098 -6.8903942944 
-1.9618163346 3.4463146723 -7.10083102 -1.9595558315 3.5807523934 -7.3115948434 -1.9591600912 3.7034011527 -7.5294414069 
-1.9922335507 3.8261433401 -7.744709848 -2.0235998482 3.9580476516 -7.9547512915 -2.053410198 4.0821397433 -8.16972221 
-2.0922570198 4.2101350542 -8.380928566 -2.0673262565 4.3390293584 -8.5936836256 -2.0611579752 4.4358891617 -8.8240748816 
-2.0457609566 4.5389463916 -9.0513239502 -2.0376118219 4.6474567449 -9.2763997037 -2.0620327306 4.7344755807 -9.5094905474 
-2.0678249667 4.7919692102 -9.7527207523 -2.0538188065 4.7894724803 -10.002315612 -2.061454029 4.7954964511 -10.25212637 
-2.0748719743 4.7792135014 -10.501234428 -2.0879807121 4.7450832286 -10.748546549 -2.1011430636 4.7103243177 -10.995768253 
-2.1002295418 4.7008537725 -11.245587136 -2.1048346881 4.6894878057 -11.495286169 -2.0641472069 4.6880886783 -11.741949039 
-2.0210511199 4.6768675797 -11.987950694 -1.9835084387 4.6483785121 -12.233468351 -1.9506827239 4.6230643942 -12.480007736 
-1.9004712217 4.6381689642 -12.724447211 -1.8375331244 4.6537107888 -12.96589544 -1.7745908329 4.6759472614 -13.206818265 
-1.7324654219 4.637703043 -13.450257845 -1.6671038275 4.5609504363 -13.679030438 -1.598399743 4.4811403079 -13.905768376 
-1.5362405788 4.3949975328 -14.132077148 -1.4802902991 4.3079524624 -14.359657292 -1.4132617365 4.2082396067 -14.578893508 
-1.3346237404 4.1025622853 -14.791374964 -1.2639046148 4.0215870271 -15.017077895 -1.1811068059 3.9440623254 -15.239865784 
-1.0986307142 3.8389919159 -15.45118995 -0.9637992344 3.7108445705 -15.618219079 -0.83607035007 3.5887696699 -15.795089231 
-0.67316557472 3.4694079904 -15.942448736 -0.49469270494 3.3540019539 -16.074087946 -0.32610371771 3.2396122859 -16.218976721 
-0.14820477506 3.1356714575 -16.360568636 0.012364935668 3.0233302117 -16.515800116 0.1549159304 2.9000749565 -16.680078405 
0.27000396814 2.7652117596 -16.856335778 0.3829086188 2.6314831379 -17.034855232 0.49747072388 2.4976228367 -17.212216287 
0.60083379182 2.4004242314 -17.418052405 0.66797056282 2.2936634265 -17.633910656 0.75017747883 2.1834571348 -17.842708636 
0.82913521304 2.0737203209 -18.053002496 0.84139766799 2.0604437881 -18.08156333 -0.5126230829 0.66576812132 -3.5400907975 
-0.52277406038 0.77956108233 -3.7624601292 -0.53449030145 0.89788545023 -3.982373916 -0.53515452505 1.0082199251 -4.2067081811 
-0.53644590475 1.1144897642 -4.4329935178 -0.53696454607 1.2507070137 -4.6426231721 -0.51878168185 1.3625180934 -4.8654856093 
-0.50273855675 1.4613674127 -5.0945520412 -0.49082816941 1.5488159746 -5.328455636 -0.53649707025 1.6336061495 -5.5591610277 
-0.58531137867 1.7180366746 -5.7893536638 -0.67092791921 1.7968155302 -6.0106310912 -0.74962718774 1.8695191762 -6.2365085027 
-0.83361798078 1.9305568324 -6.4639287111 -0.91700232593 1.9931029055 -6.6911621587 -0.9753928223 2.0369035191 -6.930268947 
-1.0475750197 2.0677300162 -7.1676282894 -1.1009443958 2.0963864931 -7.4101783173 -1.0913733021 2.1254249614 -7.6583015962 
-1.0949643175 2.1422303757 -7.9077102622 -1.0664266342 2.165504346 -8.1548653099 -1.1248934303 1.2712178784 -4.0456439831 
-1.3701105494 1.2938911888 -4.0025802454 -1.6157087444 1.3095406912 -3.9585732041 -1.8617989566 1.2971902892 -3.9162993943 
-2.1048102068 1.2871864009 -3.8584594899 -2.3536918581 1.2700404026 -3.8422133105 -2.6027259385 1.2509731012 -3.853097466 
-2.8484396668 1.2518422052 -3.8991844311 -3.0916583036 1.2465957369 -3.9567793032 -3.3338077351 1.2274596438 -4.0159186538 
-3.5641759617 1.2403219499 -4.1121737381 -3.7912733809 1.2235452575 -4.2153498243 -4.0204382622 1.2355273717 -4.3145460244 
-4.2478450942 1.2493184055 -4.4174826076 -4.4834828557 1.2739945955 -4.4972693924 -4.7217834282 1.3027450896 -4.567171082 
-4.9607669071 1.3311838138 -4.6348330046 -5.199558466 1.3700473821 -4.6978267701 -5.4302756926 1.4046385181 -4.7876767264 
-5.6506628044 1.4263130494 -4.9036928272 -5.8669179291 1.4821841882 -5.0156676629 -1.5694943891 1.9404801104 -4.6341551474 
-1.4895185985 2.1771164887 -4.6238063594 -1.381831314 2.3982210442 -4.5789039731 -1.2633369749 2.613011121 -4.5306928281 
-1.1462127147 2.8284302862 -4.4819435621 -1.0110186488 3.0229077887 -4.4019369025 -0.87475765502 3.2163027526 -4.3211202613 
-0.70885179817 3.3900448113 -4.2519180669 -0.54644443097 3.5633239055 -4.1738270778 -0.35505468441 3.7110359584 -4.1101787129 
-0.1483501848 3.8487343787 -4.0816761715 0.067808343634 3.9732436541 -4.0651555501 0.28749992486 4.0913120878 -4.0479667714 
0.50374755256 4.2143802933 -4.0236525716 0.73000447932 4.3146703998 -3.988301509 0.94938943915 4.4138568734 -3.9209792775 
1.1649049221 4.5245782177 -3.8593849555 1.3613181123 4.6701551205 -3.8071429788 1.5518888171 4.8233410947 -3.7550194358 
1.7445140987 4.9527028979 -3.6619548088 1.9520510821 5.0706612644 -3.5883375689 -1.9325266326 2.5204028889 -5.3477890193 
-2.0959306286 2.7087500879 -5.365801979 -2.2633102792 2.8933902522 -5.385602541 -2.4178782198 3.0885612485 -5.4083409222 
-2.5479432722 3.3001525355 -5.43684021 -2.6787178666 3.5102060499 -5.4725547247 -2.8107433098 3.7194501556 -5.5084181681 
-2.9413858908 3.9308341965 -5.5357915725 -3.0679742596 4.1429310387 -5.574396163 -3.2382620752 4.3194711085 -5.6227248669 
-3.4034421657 4.4981947511 -5.679938478 -3.5627383883 4.6713598955 -5.7644283958 -3.7260812147 4.8202216789 -5.8813013633 
-3.8851823596 4.9781299918 -5.9919891692 -4.0318882388 5.1192579924 -6.1371107474 -4.1776034972 5.267674107 -6.2758180666 
-4.3006385034 5.4063912843 -6.4435080543 -4.3993083167 5.5617470301 -6.612708705 -4.4888422999 5.7516090069 -6.7484882896 
-4.5691850661 5.9608949852 -6.8591427934 -4.6250139927 6.1476728782 -7.0152628647 -2.0326142165 2.9638917436 -6.2331597129 
-1.8379661322 2.9856981232 -6.3885193121 -1.6391598511 3.01010672 -6.5381197233 -1.4501474801 3.0433683747 -6.6983320385 
-1.259729815 3.1333976635 -6.8330014113 -1.0836211307 3.1947706356 -6.9994919203 -0.90834424086 3.2595978692 -7.1655504693 
-0.7571583047 3.3005064676 -7.3604075946 -0.60996519126 3.3440873206 -7.5577268704 -0.49002972453 3.3894289805 -7.7723419158 
-0.36913794691 3.4240836293 -7.988407261 -0.25986560906 3.4360709529 -8.212942025 -0.15574965957 3.4430170546 -8.4401239362 
-0.037148734201 3.3980559853 -8.65555913 0.11474077309 3.3523152081 -8.8487879034 0.25761539666 3.307527632 -9.0489900887 
0.37134473956 3.3170620605 -9.2714192487 0.45184428968 3.4066055838 -9.4905123337 0.52755006512 3.4859579188 -9.7151717258 
0.61963079677 3.5558990082 -9.9368232155 0.71155600796 3.6256716727 -10.158220968 -1.9618163346 3.4463146723 -7.10083102 
-2.0309726592 3.3358535308 -7.3141751996 -2.104616748 3.2322445112 -7.5294464686 -2.190188981 3.1546980797 -7.751175907 
-2.2976904794 3.0825969981 -7.9650563921 -2.3991063146 3.0081621014 -8.1810986901 -2.5152911443 2.932724715 -8.3892099249 
-2.6353777226 2.9151416721 -8.607773532 -2.7375207027 2.9036163259 -8.8356638083 -2.8064497636 2.8770738805 -9.0745032588 
-2.8451554793 2.8922226211 -9.3210238122 -2.8645235536 2.9469414014 -9.5641919285 -2.8916055665 2.9711691852 -9.8115369892 
-2.9352780296 2.950425028 -10.056817229 -2.9962578971 2.9862888521 -10.296598883 -3.0614373976 3.0026472426 -10.537397629 
-3.1480640416 3.0173237865 -10.77144981 -3.2331271899 3.0370317538 -11.005705774 -3.288509663 3.025893663 -11.249239601 
-3.320897827 3.0297427036 -11.497102853 -3.3208786737 3.0038642036 -11.745309351 -2.0235998482 3.9580476516 -7.9547512915 
-1.8641792939 4.1284428016 -8.0444763141 -1.703088157 4.2983186837 -8.1321793946 -1.5312487767 4.4435719007 -8.2411414537 
-1.3581433132 4.5892239683 -8.3475368188 -1.1862146091 4.7158958043 -8.4775166889 -1.0186464144 4.8089534404 -8.6380195752 
-0.86800983641 4.8930373924 -8.8189574385 -0.72884017182 4.9763139347 -9.0092120626 -0.59088419752 5.0655988889 -9.1976168027 
-0.45467165021 5.1541236562 -9.3876418208 -0.32760832179 5.2513809607 -9.5797249468 -0.20178605879 5.3528466093 -9.770443274 
-0.086646172337 5.4573309696 -9.9662131005 0.03316044533 5.5673355231 -10.15606929 0.1539268129 5.6761187869 -10.346021089 
0.26904779452 5.7614038547 -10.550895726 0.38126424888 5.8387279751 -10.76048687 0.52095386486 5.9122322598 -10.954352626 
0.65941290954 5.9812120167 -11.150747346 0.83217367741 6.082715558 -11.299200735 -2.0611579752 4.4358891617 -8.8240748816 
-2.2749039929 4.4474172946 -8.9532249573 -2.4981042812 4.4241463158 -9.0634070468 -2.7250734602 4.4038012478 -9.1662227557 
-2.9418091811 4.3703748547 -9.2862573487 -3.1667417949 4.3351481088 -9.3895259095 -3.3871943636 4.2952164277 -9.5004588882 
-3.6033343095 4.2456788972 -9.6159125883 -3.8152564157 4.1965541869 -9.7391026194 -4.0309626123 4.1245192607 -9.8429380958 
-4.2473437712 4.0832631956 -9.9611630135 -4.4655861722 4.0789046166 -10.083028748 -4.6819146229 4.0739012266 -10.208236445 
-4.9124821926 4.0776730423 -10.304799219 -5.1348570088 4.0688567566 -10.418692652 -5.3596202142 4.1049321565 -10.522037062 
[...]
CELL_DATA 451
SCALARS solution%20variable double
LOOKUP_TABLE default
7494.3186339 7254.1299012 7007.2013663 6751.3669925 6546.560276 6334.1543687 6114.4980987 5886.7771494 5705.4753374 
5517.3560717 5322.7231592 5120.8311449 4960.86071 4794.8044283 4622.9265036 4444.5488171 4303.7719168 4157.5840637 
4006.2149088 3849.0505452 3725.3975861 3596.9473974 3463.8997035 3325.7003177 3217.1950148 3104.4425181 2987.6168239 
2866.2178512 2770.9935516 2672.0074586 2569.4116398 2462.7535857 2379.061637 2292.0288376 2201.788776 2107.9291734 
2034.1412717 1957.3698494 1877.7331655 1794.850992 1729.4592827 1661.3789045 1590.7156508 1517.1120697 1458.7336124 
1397.9001552 1334.7075107 1268.8099966 1216.2127207 1161.3355017 1104.2658683 1044.6559355 996.85855422 946.90820959 
894.88046109 840.40218978 796.91745839 751.38278309 703.85942825 653.92804325 614.81995013 573.81995162 530.98093366 
485.83137078 451.48269836 415.56715946 378.17318179 338.83173202 310.64367404 281.83192826 252.72217794 223.20079507 
193.0602985 161.89678664 128.83707143 16.644074427 6620.4047854 6486.453593 6349.7734974 6210.183325 6067.4811733 
5921.4409364 5771.8080446 5618.2941863 5460.5707032 5298.2602223 5130.9259147 4958.0575039 4779.0527319 4593.1923394 
4399.605552 4197.2212548 3984.6968586 3760.3109705 3521.7944348 658.5616931 5767.7103047 5645.8163609 5521.3349608 
5394.0858357 5263.8670555 5130.4512068 4993.5806593 4852.9616371 4708.2567039 4559.0751139 4404.9602316 4245.3728584 
4079.6687058 3907.0672912 3726.6078895 3537.085278 3336.9526373 3124.1684148 2895.941687 585.65787976 5013.3464799 
4903.223154 4790.6799299 4675.5407763 4557.6075701 4436.6560191 4312.4305633 4184.6379225 4052.9388242 3916.9372413 
3776.1661577 3630.0683866 3477.9701591 3319.0438495 3152.2538133 2976.2749292 2789.3648723 2589.153261 2372.2701099 
518.21316259 4348.1659208 4249.3521367 4148.3056417 4044.8576578 3938.8174036 3829.9678711 3718.0604976 3602.8083606 
3483.8773606 3360.8746128 3233.3328862 3100.6893079 2962.2555179 2817.1746617 2664.357343 2502.3823986 2329.3355309 
2142.5303658 1937.986434 456.3041235 3763.150631 3675.0394529 3584.895525 3492.5598284 3397.8519154 3300.5656546 
3200.4638231 3097.2711406 2990.6651579 2880.2641334 2765.6105813 2646.1484401 2521.1905476 2389.8708613 2251.0716462 
2103.3074498 1944.5296543 1771.7729292 1580.4519022 399.87952994 3249.5618957 3171.4368128 3091.4853451 3009.5601314 
2925.4933718 2839.0926517 2750.1355971 2658.3629412 2563.4693788 2465.091281 2362.7898445 2256.0274093 2144.1332235 
2026.2522644 1901.2655803 1767.6599932 1623.3011991 1465.0049571 1287.6306226 348.76135318 2799.0540641 2730.1276394 
2659.5824356 2587.2840489 2513.0789532 2436.7904966 2358.21375 2277.1087794 2193.1917088 2106.122616 2015.4887707 
1920.780817 1821.3578918 1716.3946592 1604.7972874 1485.0627007 1355.0258349 1211.3618258 1048.4695668 302.66086593 
2403.7447378 2343.1928243 2281.2274527 2217.727969 2152.5561471 2085.552433 2016.5310902 1945.2738247 1871.5212637 
1794.9613322 1715.2130254 1631.8031274 1544.1317254 1451.4191222 1352.6201857 1246.2777799 1130.2521145 1001.1668416 
853.09454529 261.18483575 2056.2470046 2003.2348984 1949.0107582 1893.4681357 1836.4847121 1777.9188477 1717.6051028 
1655.3483283 1590.9157267 1524.0259559 1454.3338102 1381.4080615 1304.6983107 1223.483348 1136.7865943 1043.2286452 
940.74808083 826.00525533 692.89735477 223.84905211 1749.6701127 1703.3658153 1656.0474079 1607.6230044 1557.9866457 
1507.0151927 1454.5642799 1400.4629566 1344.5064546 1286.4462128 1225.9757689 1162.710207 1096.1551543 1025.6579824 
950.32687096 868.88374013 779.38588455 678.61689234 560.47994032 190.07954411 1477.6024157 1437.1706014 1395.9215005 
1353.7784378 1310.6525429 1266.4400152 1221.0185523 1174.2426053 1125.9369519 1075.8877959 1023.830116 969.42912995 
912.25003854 851.71289048 787.01831756 717.01139596 639.91269642 552.7124089 449.49970566 159.19412898 1234.0880125 
1198.6410703 1162.5761531 1125.8335508 1088.3434052 1050.0233743 1010.7755773 970.48252469 928.99960601 886.14820351 
841.70517863 795.38644095 746.82182037 695.51484415 640.77457374 581.59130884 516.38652854 442.43427479 354.19318543 
130.27852276 1013.6243357 982.05424479 950.06630184 917.62040162 884.66863383 851.15334022 817.00455666 782.13658852 
746.44333598 709.79176705 672.01255816 632.88624057 592.12189462 549.32280566 503.92773623 455.10252243 401.51819642 
340.823989 268.05837886 101.71803327 811.43177152 782.04259379 752.3919048 722.46793975 692.25548906 661.73472764 
630.87960387 599.65559353 568.01651931 535.89996302 503.22049747 469.85942244 435.64865142 400.34427673 363.58064015 
324.78415829 282.99338006 236.4187712 181.0429479 70.001257205 625.50202034 596.6602225 567.60995538 538.35267488 
508.88991738 479.22332117 449.35465193 419.28583182 389.01896918 358.55637888 327.90056598 297.05409808 266.01916437 
234.79625716 203.38031652 171.74907873 139.82508009 107.33452451 73.141576557 26.768379535 457.7803523 429.27648151 
400.59170507 371.72826906 342.6886576 313.47570507 284.09276208 254.54395056 224.83457372 194.97181285 164.96600195 
134.83321765 104.60144998 74.329400367 44.189742749 15.19184018 1.0932778435 0.0032684742803 2.2648474237e-08 311.03305906 
282.70387841 254.23054952 225.62036741 196.88199076 168.02642243 139.06899158 110.03382461 80.965326098 51.961935242 
23.276127767 5.3563831986 7578.6631728 7662.0453947 7744.6504486 7826.5038724 7907.6298982 7988.0515429 8067.79069 
8146.8681649 8225.303804 8303.1165176 8380.3243486 8456.9445255 8532.9935119 8608.4870525 8683.4402148 8755.6000761 
8827.3835137 8898.7026152 8969.5689368 9039.9935849 9109.9872397 9179.5601767 9248.7222873 9304.6760558 9360.4629935 
9416.0309725 9471.3841514 9526.5265621 9581.4621141 9636.1946 9690.7276989 9722.6037736 9754.5024571 9786.4063801 
9818.3156333 9850.2302919 9882.1504159 9914.0760509 9946.0072283 9946.0044932 8819.813903 10041.961773 11073.401529 
11894.668776 
