# vtk DataFile Version 5.1
vtk output
ASCII
DATASET UNSTRUCTURED_GRID
POINTS 474 double
0 0 -3 -0.11344901018 0.17758382911 -3.1345113591 -0.25315847539 0.33878440002 -3.2648786912 
-0.38126193464 0.50363826191 -3.4024021726 -0.5126230829 0.66576812132 -3.5400907975 -0.65843420624 0.83063257984 -3.6586607204 
-0.82297351213 0.96639713451 -3.7890248355 -0.97532665543 1.1205572503 -3.9136168835 -1.1248934303 1.2712178784 -4.0456439831 
-1.260480867 1.4416481412 -4.1684021702 -1.3678821889 1.6074581306 -4.3216079256 -1.4660695894 1.784059061 -4.4688198332 
-1.5694943891 1.9404801104 -4.6341551474 -1.6843141616 2.0801145574 -4.8068358964 -1.7920938126 2.214324268 -4.9881403376 
-1.8953148049 2.3800598251 -5.1442721788 -1.9325266326 2.5204028889 -5.3477890193 -1.973129178 2.6634701459 -5.548744719 
-1.9865147688 2.7616205381 -5.7782819197 -2.0072616269 2.8605132642 -6.0069515429 -2.0326142165 2.9638917436 -6.2331597129 
-1.9920842053 3.0592208557 -6.4606892244 -1.9658829099 3.1812169213 -6.6773235986 -1.95489032 3.3115244098 -6.8903942944 
-1.9618163346 3.4463146723 -7.10083102 -1.9595558315 3.5807523934 -7.3115948434 -1.9591600912 3.7034011527 -7.5294414069 
-1.9922335507 3.8261433401 -7.744709848 -2.0235998482 3.9580476516 -7.9547512915 -2.053410198 4.0821397433 -8.16972221 
-2.0922570198 4.2101350542 -8.380928566 -2.0673262565 4.3390293584 -8.5936836256 -2.0611579752 4.4358891617 -8.8240748816 
-2.0457609566 4.5389463916 -9.0513239502 -2.0376118219 4.6474567449 -9.2763997037 -2.0620327306 4.7344755807 -9.5094905474 
-2.0678249667 4.7919692102 -9.7527207523 -2.0538188065 4.7894724803 -10.002315612 -2.061454029 4.7954964511 -10.25212637 
-2.0748719743 4.7792135014 -10.501234428 -2.0879807121 4.7450832286 -10.748546549 -2.1011430636 4.7103243177 -10.995768253 
-2.1002295418 4.7008537725 -11.245587136 -2.1048346881 4.6894878057 -11.495286169 -2.0641472069 4.6880886783 -11.741949039 
-2.0210511199 4.6768675797 -11.987950694 -1.9835084387 4.6483785121 -12.233468351 -1.9506827239 4.6230643942 -12.480007736 
-1.9004712217 4.6381689642 -12.724447211 -1.8375331244 4.6537107888 -12.96589544 -1.7745908329 4.6759472614 -13.206818265 
-1.7324654219 4.637703043 -13.450257845 -1.6671038275 4.5609504363 -13.679030438 -1.598399743 4.4811403079 -13.905768376 
-1.5362405788 4.3949975328 -14.132077148 -1.4802902991 4.3079524624 -14.359657292 -1.4132617365 4.2082396067 -14.578893508 
-1.3346237404 4.1025622853 -14.791374964 -1.2639046148 4.0215870271 -15.017077895 -1.1811068059 3.9440623254 -15.239865784 
-1.0986307142 3.8389919159 -15.45118995 -0.9637992344 3.7108445705 -15.618219079 -0.83607035007 3.5887696699 -15.795089231 
-0.67316557472 3.4694079904 -15.942448736 -0.49469270494 3.3540019539 -16.074087946 -0.32610371771 3.2396122859 -16.218976721 
-0.14820477506 3.1356714575 -16.360568636 0.012364935668 3.0233302117 -16.515800116 0.1549159304 2.9000749565 -16.680078405 
0.27000396814 2.7652117596 -16.856335778 0.3829086188 2.6314831379 -17.034855232 0.49747072388 2.4976228367 -17.212216287 
0.60083379182 2.4004242314 -17.418052405 0.66797056282 2.2936634265 -17.633910656 0.75017747883 2.1834571348 -17.842708636 
0.82913521304 2.0737203209 -18.053002496 0.84139766799 2.0604437881 -18.08156333 -0.5126230829 0.66576812132 -3.5400907975 
-0.52277406038 0.77956108233 -3.7624601292 -0.53449030145 0.89788545023 -3.982373916 -0.53515452505 1.0082199251 -4.2067081811 
-0.53644590475 1.1144897642 -4.4329935178 -0.53696454607 1.2507070137 -4.6426231721 -0.51878168185 1.3625180934 -4.8654856093 
-0.50273855675 1.4613674127 -5.0945520412 -0.49082816941 1.5488159746 -5.328455636 -0.53649707025 1.6336061495 -5.5591610277 
-0.58531137867 1.7180366746 -5.7893536638 -0.67092791921 1.7968155302 -6.0106310912 -0.74962718774 1.8695191762 -6.2365085027 
-0.83361798078 1.9305568324 -6.4639287111 -0.91700232593 1.9931029055 -6.6911621587 -0.9753928223 2.0369035191 -6.930268947 
-1.0475750197 2.0677300162 -7.1676282894 -1.1009443958 2.0963864931 -7.4101783173 -1.0913733021 2.1254249614 -7.6583015962 
-1.0949643175 2.1422303757 -7.9077102622 -1.0664266342 2.165504346 -8.1548653099 -1.1248934303 1.2712178784 -4.0456439831 
-1.3701105494 1.2938911888 -4.0025802454 -1.6157087444 1.3095406912 -3.9585732041 -1.8617989566 1.2971902892 -3.9162993943 
-2.1048102068 1.2871864009 -3.8584594899 -2.3536918581 1.2700404026 -3.8422133105 -2.6027259385 1.2509731012 -3.853097466 
-2.8484396668 1.2518422052 -3.8991844311 -3.0916583036 1.2465957369 -3.9567793032 -3.3338077351 1.2274596438 -4.0159186538 
-3.5641759617 1.2403219499 -4.1121737381 -3.7912733809 1.2235452575 -4.2153498243 -4.0204382622 1.2355273717 -4.3145460244 
-4.2478450942 1.2493184055 -4.4174826076 -4.4834828557 1.2739945955 -4.4972693924 -4.7217834282 1.3027450896 -4.567171082 
-4.9607669071 1.3311838138 -4.6348330046 -5.199558466 1.3700473821 -4.6978267701 -5.4302756926 1.4046385181 -4.7876767264 
-5.6506628044 1.4263130494 -4.9036928272 -5.8669179291 1.4821841882 -5.0156676629 -1.5694943891 1.9404801104 -4.6341551474 
-1.4895185985 2.1771164887 -4.6238063594 -1.381831314 2.3982210442 -4.5789039731 -1.2633369749 2.613011121 -4.5306928281 
-1.1462127147 2.8284302862 -4.4819435621 -1.0110186488 3.0229077887 -4.4019369025 -0.87475765502 3.2163027526 -4.3211202613 
-0.70885179817 3.3900448113 -4.2519180669 -0.54644443097 3.5633239055 -4.1738270778 -0.35505468441 3.7110359584 -4.1101787129 
-0.1483501848 3.8487343787 -4.0816761715 0.067808343634 3.9732436541 -4.0651555501 0.28749992486 4.0913120878 -4.0479667714 
0.50374755256 4.2143802933 -4.0236525716 0.73000447932 4.3146703998 -3.988301509 0.94938943915 4.4138568734 -3.9209792775 
1.1649049221 4.5245782177 -3.8593849555 1.3613181123 4.6701551205 -3.8071429788 1.5518888171 4.8233410947 -3.7550194358 
1.7445140987 4.9527028979 -3.6619548088 1.9520510821 5.0706612644 -3.5883375689 -1.9325266326 2.5204028889 -5.3477890193 
-2.0959306286 2.7087500879 -5.365801979 -2.2633102792 2.8933902522 -5.385602541 -2.4178782198 3.0885612485 -5.4083409222 
-2.5479432722 3.3001525355 -5.43684021 -2.6787178666 3.5102060499 -5.4725547247 -2.8107433098 3.7194501556 -5.5084181681 
-2.9413858908 3.9308341965 -5.5357915725 -3.0679742596 4.1429310387 -5.574396163 -3.2382620752 4.3194711085 -5.6227248669 
-3.4034421657 4.4981947511 -5.679938478 -3.5627383883 4.6713598955 -5.7644283958 -3.7260812147 4.8202216789 -5.8813013633 
-3.8851823596 4.9781299918 -5.9919891692 -4.0318882388 5.1192579924 -6.1371107474 -4.1776034972 5.267674107 -6.2758180666 
-4.3006385034 5.4063912843 -6.4435080543 -4.3993083167 5.5617470301 -6.612708705 -4.4888422999 5.7516090069 -6.7484882896 
-4.5691850661 5.9608949852 -6.8591427934 -4.6250139927 6.1476728782 -7.0152628647 -2.0326142165 2.9638917436 -6.2331597129 
-1.8379661322 2.9856981232 -6.3885193121 -1.6391598511 3.01010672 -6.5381197233 -1.4501474801 3.0433683747 -6.6983320385 
-1.259729815 3.1333976635 -6.8330014113 -1.0836211307 3.1947706356 -6.9994919203 -0.90834424086 3.2595978692 -7.1655504693 
-0.7571583047 3.3005064676 -7.3604075946 -0.60996519126 3.3440873206 -7.5577268704 -0.49002972453 3.3894289805 -7.7723419158 
-0.36913794691 3.4240836293 -7.988407261 -0.25986560906 3.4360709529 -8.212942025 -0.15574965957 3.4430170546 -8.4401239362 
-0.037148734201 3.3980559853 -8.65555913 0.11474077309 3.3523152081 -8.8487879034 0.25761539666 3.307527632 -9.0489900887 
0.37134473956 3.3170620605 -9.2714192487 0.45184428968 3.4066055838 -9.4905123337 0.52755006512 3.4859579188 -9.7151717258 
0.61963079677 3.5558990082 -9.9368232155 0.71155600796 3.6256716727 -10.158220968 -1.9618163346 3.4463146723 -7.10083102 
-2.0309726592 3.3358535308 -7.3141751996 -2.104616748 3.2322445112 -7.5294464686 -2.190188981 3.1546980797 -7.751175907 
-2.2976904794 3.0825969981 -7.9650563921 -2.3991063146 3.0081621014 -8.1810986901 -2.5152911443 2.932724715 -8.3892099249 
-2.6353777226 2.9151416721 -8.607773532 -2.7375207027 2.9036163259 -8.8356638083 -2.8064497636 2.8770738805 -9.0745032588 
-2.8451554793 2.8922226211 -9.3210238122 -2.8645235536 2.9469414014 -9.5641919285 -2.8916055665 2.9711691852 -9.8115369892 
-2.9352780296 2.950425028 -10.056817229 -2.9962578971 2.9862888521 -10.296598883 -3.0614373976 3.0026472426 -10.537397629 
-3.1480640416 3.0173237865 -10.77144981 -3.2331271899 3.0370317538 -11.005705774 -3.288509663 3.025893663 -11.249239601 
-3.320897827 3.0297427036 -11.497102853 -3.3208786737 3.0038642036 -11.745309351 -2.0235998482 3.9580476516 -7.9547512915 
-1.8641792939 4.1284428016 -8.0444763141 -1.703088157 4.2983186837 -8.1321793946 -1.5312487767 4.4435719007 -8.2411414537 
-1.3581433132 4.5892239683 -8.3475368188 -1.1862146091 4.7158958043 -8.4775166889 -1.0186464144 4.8089534404 -8.6380195752 
-0.86800983641 4.8930373924 -8.8189574385 -0.72884017182 4.9763139347 -9.0092120626 -0.59088419752 5.0655988889 -9.1976168027 
-0.45467165021 5.1541236562 -9.3876418208 -0.32760832179 5.2513809607 -9.5797249468 -0.20178605879 5.3528466093 -9.770443274 
-0.086646172337 5.4573309696 -9.9662131005 0.03316044533 5.5673355231 -10.15606929 0.1539268129 5.6761187869 -10.346021089 
0.26904779452 5.7614038547 -10.550895726 0.38126424888 5.8387279751 -10.76048687 0.52095386486 5.9122322598 -10.954352626 
0.65941290954 5.9812120167 -11.150747346 0.83217367741 6.082715558 -11.299200735 -2.0611579752 4.4358891617 -8.8240748816 
-2.2749039929 4.4474172946 -8.9532249573 -2.4981042812 4.4241463158 -9.0634070468 -2.7250734602 4.4038012478 -9.1662227557 
-2.9418091811 4.3703748547 -9.2862573487 -3.1667417949 4.3351481088 -9.3895259095 -3.3871943636 4.2952164277 -9.5004588882 
-3.6033343095 4.2456788972 -9.6159125883 -3.8152564157 4.1965541869 -9.7391026194 -4.0309626123 4.1245192607 -9.8429380958 
-4.2473437712 4.0832631956 -9.9611630135 -4.4655861722 4.0789046166 -10.083028748 -4.6819146229 4.0739012266 -10.208236445 
-4.9124821926 4.0776730423 -10.304799219 -5.1348570088 4.0688567566 -10.418692652 -5.3596202142 4.1049321565 -10.522037062 
[...]
CELL_DATA 451
SCALARS solution%20variable double
LOOKUP_TABLE default
7505.9178925 7265.5459778 7018.4295298 6762.4028829 6557.4357965 6344.8649304 6125.0392927 5897.1449696 5715.703522 
5527.4406076 5332.6601577 5130.6172233 4970.5309489 4804.3556537 4632.3556061 4453.8533491 4312.9878222 4166.7093083 
4015.2474582 3857.9892482 3734.2788177 3605.7706114 3472.6642822 3334.4068279 3225.8798767 3113.1070833 2996.2622915 
2874.8470083 2779.6424681 2680.6798754 2578.1110517 2471.4856109 2387.8614317 2300.9031312 2210.7439431 2116.9744283 
2043.3097773 1966.6720638 1887.1790718 1804.4543898 1739.2491462 1671.3703494 1600.923207 1527.5554603 1469.4327831 
1408.8760236 1345.9803737 1280.4073813 1228.1334848 1173.6074777 1116.9165063 1057.7230954 1010.2877001 960.73370222 
909.13805327 855.14334781 811.97943552 766.8013075 719.67307528 670.19812589 631.34201349 590.62870952 548.1153377 
503.36136251 469.23686478 433.57714049 396.47168545 357.48899777 329.49089676 300.83372403 271.79670107 242.23848717 
211.91706457 180.39192012 146.77939975 18.064999089 6631.3590988 6497.3222016 6360.5520537 6220.8674335 6078.0664011 
5931.9228276 5782.1821401 5628.5560519 5470.7159674 5308.2846291 5140.825398 4967.8282918 4788.6914961 4602.6964127 
4408.9732498 4206.4523632 3993.7933968 3769.2784231 3530.643835 659.54231883 5777.992943 5656.0090211 5531.4326168 
5404.0833669 5273.7592516 5140.2327767 5003.2462446 4862.5058317 4717.6740846 4568.3602843 4414.1078878 4254.3778862 
4088.5263268 3915.7732851 3735.1589408 3545.4795284 3345.1905976 3132.2545355 2903.8872129 586.63039337 5023.0453495 
4912.8293224 4800.1876523 4684.9441607 4566.9005759 4445.8324582 4321.4841045 4193.5621007 4061.7270585 3925.5828644 
3784.6624656 3638.4087176 3486.1480225 3327.0531335 3160.0891296 2983.932198 2796.8423505 2596.4534437 2379.4034833 
519.17897914 4357.3828359 4258.4752141 4157.3283701 4053.7733213 3947.6190734 3838.648397 3726.6125013 3611.2242323 
3492.1492601 3368.9944801 3241.2924665 3108.4802026 2969.8692792 2824.6029635 2671.5922901 2509.4170956 2336.1651634 
2149.1543703 1944.4132021 457.26719163 3772.0028981 3683.7982822 3593.5535659 3501.1094641 3406.2852459 3308.874478 
3208.6396171 3105.3050428 2998.5479484 2887.9862207 2773.1619972 2653.5188515 2528.369302 2396.8470963 2257.8345259 
2109.8466574 1950.8364339 1777.8423981 1586.2886396 400.84712433 3258.1847287 3179.9680922 3099.9167616 3017.8830406 
2933.6987687 2847.1711406 2758.0773597 2666.1576999 2571.1063572 2472.5591622 2370.0767291 2263.1207796 2151.0199253 
2032.918532 1907.6971601 1773.8424937 1629.220978 1470.6513851 1293.0023321 349.74496926 2807.604016 2738.5894788 
2667.9467003 2595.5408609 2521.217983 2444.8009223 2366.0842094 2284.8273151 2200.7457041 2113.4987214 2022.67282 
1927.7577353 1828.1115988 1722.9079867 1611.0519501 1491.0394311 1360.7049802 1216.7253084 1053.5073732 303.67709 
2412.4042772 2351.7696962 2289.7107418 2226.1062418 2160.8174055 2093.6840599 2024.5197851 1953.1055273 1879.1810626 
1802.4333551 1722.480307 1638.847451 1550.933434 1457.9569029 1358.8708451 1252.2160852 1135.850947 1006.398535 
857.93697405 262.25713765 2065.230117 2012.1440626 1957.8331635 1902.1903112 1845.0924677 1786.3972029 1725.9382027 
1663.5193417 1598.9067217 1531.817747 1461.9057682 1388.7378746 1311.7616824 1230.2536152 1143.234252 1049.3207935 
946.4479366 831.27289851 697.69426783 225.01004452 1759.2281633 1712.8646233 1665.4716402 1616.9564541 1567.2121545 
1516.114559 1463.5181479 1409.2506814 1353.1059363 1294.8336883 1234.125548 1170.5943321 1103.7429535 1032.9154739 
957.21595823 875.36164373 785.40341761 684.11727356 565.40106841 191.37492158 1488.030158 1447.5662099 1406.2663099 
1364.0525479 1320.8347121 1276.5075339 1230.9470911 1184.0060308 1135.5070989 1085.2341802 1032.9195658 978.22530224 
920.71338546 859.7992903 794.67786623 724.18666142 646.53616875 558.70298774 454.76036035 160.69212472 1245.7293551 
1210.3072977 1174.2445712 1137.479523 1099.940178 1061.5418761 1022.1841812 981.74676499 940.08260434 897.00959657 
852.30059913 805.66683824 756.73254419 704.99436627 649.75263519 589.98611737 524.10032485 449.34609806 360.14831382 
132.10276776 1026.8712475 995.46222095 963.61072707 931.27328297 898.39823399 864.92376389 830.77527936 795.86191283 
760.07175372 723.26519554 685.26540193 645.84420197 604.70040832 561.42488443 515.44084742 465.8937734 411.42635944 
349.64516218 275.51862391 104.16331269 826.61766917 797.66871346 768.44173411 738.92008511 709.08279221 678.90320553 
648.34717434 617.37053988 585.91563398 553.90629174 521.2405765 487.77985273 453.33176802 417.62250788 380.24881511 
340.58827855 297.61254505 249.43188336 191.85555735 73.773910921 642.32788796 614.05513292 585.57427502 556.8865973 
527.99337358 498.89583715 469.59511841 440.09212374 410.38730304 380.48020291 350.36859884 320.04677991 289.50207192 
258.70755107 227.60608821 196.07327195 163.82361764 130.1392277 92.859869788 34.239634492 475.80154732 447.8052223 
419.62595142 391.26598316 362.72773297 334.01386184 305.12739064 276.07187191 246.85165747 217.47233367 187.94146746 
158.26997341 128.47486414 98.585688793 68.664402776 38.908337551 11.297923798 0.5540889782 0.00088912817831 330.13484995 
302.26991626 274.24877994 246.07795631 217.7648406 189.31811239 160.74825071 132.06773442 103.28799698 74.392740722 
45.096600492 12.658292313 7590.3266298 7673.7681681 7756.427764 7838.3310627 7919.5023997 7999.9648915 8079.740518 
8158.8501976 8237.313857 8315.150494 8392.3782363 8469.014395 8545.0755143 8620.5774169 8695.5352468 8767.6985908 
8839.4817461 8910.7970016 8981.6559842 9052.0698694 9122.049405 9191.6049331 9260.7464104 9316.6923038 9372.4676972 
9428.0206131 9483.355271 9538.4757631 9593.3860587 9648.0900095 9702.5913534 9734.4592879 9766.3461003 9798.2344917 
9830.1245933 9862.0165217 9893.9103789 9925.806253 9957.7042184 9957.7016494 8831.7629301 10053.015405 11083.668177 
11904.218553 
