# vtk DataFile Version 5.1
vtk output
ASCII
DATASET UNSTRUCTURED_GRID
POINTS 474 double
0 0 -3 -0.11344901018 0.17758382911 -3.1345113591 -0.25315847539 0.33878440002 -3.2648786912 
-0.38126193464 0.50363826191 -3.4024021726 -0.5126230829 0.66576812132 -3.5400907975 -0.65843420624 0.83063257984 -3.6586607204 
-0.82297351213 0.96639713451 -3.7890248355 -0.97532665543 1.1205572503 -3.9136168835 -1.1248934303 1.2712178784 -4.0456439831 
-1.260480867 1.4416481412 -4.1684021702 -1.3678821889 1.6074581306 -4.3216079256 -1.4660695894 1.784059061 -4.4688198332 
-1.5694943891 1.9404801104 -4.6341551474 -1.6843141616 2.0801145574 -4.8068358964 -1.7920938126 2.214324268 -4.9881403376 
-1.8953148049 2.3800598251 -5.1442721788 -1.9325266326 2.5204028889 -5.3477890193 -1.973129178 2.6634701459 -5.548744719 
-1.9865147688 2.7616205381 -5.7782819197 -2.0072616269 2.8605132642 -6.0069515429 -2.0326142165 2.9638917436 -6.2331597129 
-1.9920842053 3.0592208557 -6.4606892244 -1.9658829099 3.1812169213 -6.6773235986 -1.95489032 3.3115244098 -6.8903942944 
-1.9618163346 3.4463146723 -7.10083102 -1.9595558315 3.5807523934 -7.3115948434 -1.9591600912 3.7034011527 -7.5294414069 
-1.9922335507 3.8261433401 -7.744709848 -2.0235998482 3.9580476516 -7.9547512915 -2.053410198 4.0821397433 -8.16972221 
-2.0922570198 4.2101350542 -8.380928566 -2.0673262565 4.3390293584 -8.5936836256 -2.0611579752 4.4358891617 -8.8240748816 
-2.0457609566 4.5389463916 -9.0513239502 -2.0376118219 4.6474567449 -9.2763997037 -2.0620327306 4.7344755807 -9.5094905474 
-2.0678249667 4.7919692102 -9.7527207523 -2.0538188065 4.7894724803 -10.002315612 -2.061454029 4.7954964511 -10.25212637 
-2.0748719743 4.7792135014 -10.501234428 -2.0879807121 4.7450832286 -10.748546549 -2.1011430636 4.7103243177 -10.995768253 
-2.1002295418 4.7008537725 -11.245587136 -2.1048346881 4.6894878057 -11.495286169 -2.0641472069 4.6880886783 -11.741949039 
-2.0210511199 4.6768675797 -11.987950694 -1.9835084387 4.6483785121 -12.233468351 -1.9506827239 4.6230643942 -12.480007736 
-1.9004712217 4.6381689642 -12.724447211 -1.8375331244 4.6537107888 -12.96589544 -1.7745908329 4.6759472614 -13.206818265 
-1.7324654219 4.637703043 -13.450257845 -1.6671038275 4.5609504363 -13.679030438 -1.598399743 4.4811403079 -13.905768376 
-1.5362405788 4.3949975328 -14.132077148 -1.4802902991 4.3079524624 -14.359657292 -1.4132617365 4.2082396067 -14.578893508 
-1.3346237404 4.1025622853 -14.791374964 -1.2639046148 4.0215870271 -15.017077895 -1.1811068059 3.9440623254 -15.239865784 
-1.0986307142 3.8389919159 -15.45118995 -0.9637992344 3.7108445705 -15.618219079 -0.83607035007 3.5887696699 -15.795089231 
-0.67316557472 3.4694079904 -15.942448736 -0.49469270494 3.3540019539 -16.074087946 -0.32610371771 3.2396122859 -16.218976721 
-0.14820477506 3.1356714575 -16.360568636 0.012364935668 3.0233302117 -16.515800116 0.1549159304 2.9000749565 -16.680078405 
0.27000396814 2.7652117596 -16.856335778 0.3829086188 2.6314831379 -17.034855232 0.49747072388 2.4976228367 -17.212216287 
0.60083379182 2.4004242314 -17.418052405 0.66797056282 2.2936634265 -17.633910656 0.75017747883 2.1834571348 -17.842708636 
0.82913521304 2.0737203209 -18.053002496 0.84139766799 2.0604437881 -18.08156333 -0.5126230829 0.66576812132 -3.5400907975 
-0.52277406038 0.77956108233 -3.7624601292 -0.53449030145 0.89788545023 -3.982373916 -0.53515452505 1.0082199251 -4.2067081811 
-0.53644590475 1.1144897642 -4.4329935178 -0.53696454607 1.2507070137 -4.6426231721 -0.51878168185 1.3625180934 -4.8654856093 
-0.50273855675 1.4613674127 -5.0945520412 -0.49082816941 1.5488159746 -5.328455636 -0.53649707025 1.6336061495 -5.5591610277 
-0.58531137867 1.7180366746 -5.7893536638 -0.67092791921 1.7968155302 -6.0106310912 -0.74962718774 1.8695191762 -6.2365085027 
-0.83361798078 1.9305568324 -6.4639287111 -0.91700232593 1.9931029055 -6.6911621587 -0.9753928223 2.0369035191 -6.930268947 
-1.0475750197 2.0677300162 -7.1676282894 -1.1009443958 2.0963864931 -7.4101783173 -1.0913733021 2.1254249614 -7.6583015962 
-1.0949643175 2.1422303757 -7.9077102622 -1.0664266342 2.165504346 -8.1548653099 -1.1248934303 1.2712178784 -4.0456439831 
-1.3701105494 1.2938911888 -4.0025802454 -1.6157087444 1.3095406912 -3.9585732041 -1.8617989566 1.2971902892 -3.9162993943 
-2.1048102068 1.2871864009 -3.8584594899 -2.3536918581 1.2700404026 -3.8422133105 -2.6027259385 1.2509731012 -3.853097466 
-2.8484396668 1.2518422052 -3.8991844311 -3.0916583036 1.2465957369 -3.9567793032 -3.3338077351 1.2274596438 -4.0159186538 
-3.5641759617 1.2403219499 -4.1121737381 -3.7912733809 1.2235452575 -4.2153498243 -4.0204382622 1.2355273717 -4.3145460244 
-4.2478450942 1.2493184055 -4.4174826076 -4.4834828557 1.2739945955 -4.4972693924 -4.7217834282 1.3027450896 -4.567171082 
-4.9607669071 1.3311838138 -4.6348330046 -5.199558466 1.3700473821 -4.6978267701 -5.4302756926 1.4046385181 -4.7876767264 
-5.6506628044 1.4263130494 -4.9036928272 -5.8669179291 1.4821841882 -5.0156676629 -1.5694943891 1.9404801104 -4.6341551474 
-1.4895185985 2.1771164887 -4.6238063594 -1.381831314 2.3982210442 -4.5789039731 -1.2633369749 2.613011121 -4.5306928281 
-1.1462127147 2.8284302862 -4.4819435621 -1.0110186488 3.0229077887 -4.4019369025 -0.87475765502 3.2163027526 -4.3211202613 
-0.70885179817 3.3900448113 -4.2519180669 -0.54644443097 3.5633239055 -4.1738270778 -0.35505468441 3.7110359584 -4.1101787129 
-0.1483501848 3.8487343787 -4.0816761715 0.067808343634 3.9732436541 -4.0651555501 0.28749992486 4.0913120878 -4.0479667714 
0.50374755256 4.2143802933 -4.0236525716 0.73000447932 4.3146703998 -3.988301509 0.94938943915 4.4138568734 -3.9209792775 
1.1649049221 4.5245782177 -3.8593849555 1.3613181123 4.6701551205 -3.8071429788 1.5518888171 4.8233410947 -3.7550194358 
1.7445140987 4.9527028979 -3.6619548088 1.9520510821 5.0706612644 -3.5883375689 -1.9325266326 2.5204028889 -5.3477890193 
-2.0959306286 2.7087500879 -5.365801979 -2.2633102792 2.8933902522 -5.385602541 -2.4178782198 3.0885612485 -5.4083409222 
-2.5479432722 3.3001525355 -5.43684021 -2.6787178666 3.5102060499 -5.4725547247 -2.8107433098 3.7194501556 -5.5084181681 
-2.9413858908 3.9308341965 -5.5357915725 -3.0679742596 4.1429310387 -5.574396163 -3.2382620752 4.3194711085 -5.6227248669 
-3.4034421657 4.4981947511 -5.679938478 -3.5627383883 4.6713598955 -5.7644283958 -3.7260812147 4.8202216789 -5.8813013633 
-3.8851823596 4.9781299918 -5.9919891692 -4.0318882388 5.1192579924 -6.1371107474 -4.1776034972 5.267674107 -6.2758180666 
-4.3006385034 5.4063912843 -6.4435080543 -4.3993083167 5.5617470301 -6.612708705 -4.4888422999 5.7516090069 -6.7484882896 
-4.5691850661 5.9608949852 -6.8591427934 -4.6250139927 6.1476728782 -7.0152628647 -2.0326142165 2.9638917436 -6.2331597129 
-1.8379661322 2.9856981232 -6.3885193121 -1.6391598511 3.01010672 -6.5381197233 -1.4501474801 3.0433683747 -6.6983320385 
-1.259729815 3.1333976635 -6.8330014113 -1.0836211307 3.1947706356 -6.9994919203 -0.90834424086 3.2595978692 -7.1655504693 
-0.7571583047 3.3005064676 -7.3604075946 -0.60996519126 3.3440873206 -7.5577268704 -0.49002972453 3.3894289805 -7.7723419158 
-0.36913794691 3.4240836293 -7.988407261 -0.25986560906 3.4360709529 -8.212942025 -0.15574965957 3.4430170546 -8.4401239362 
-0.037148734201 3.3980559853 -8.65555913 0.11474077309 3.3523152081 -8.8487879034 0.25761539666 3.307527632 -9.0489900887 
0.37134473956 3.3170620605 -9.2714192487 0.45184428968 3.4066055838 -9.4905123337 0.52755006512 3.4859579188 -9.7151717258 
0.61963079677 3.5558990082 -9.9368232155 0.71155600796 3.6256716727 -10.158220968 -1.9618163346 3.4463146723 -7.10083102 
-2.0309726592 3.3358535308 -7.3141751996 -2.104616748 3.2322445112 -7.5294464686 -2.190188981 3.1546980797 -7.751175907 
-2.2976904794 3.0825969981 -7.9650563921 -2.3991063146 3.0081621014 -8.1810986901 -2.5152911443 2.932724715 -8.3892099249 
-2.6353777226 2.9151416721 -8.607773532 -2.7375207027 2.9036163259 -8.8356638083 -2.8064497636 2.8770738805 -9.0745032588 
-2.8451554793 2.8922226211 -9.3210238122 -2.8645235536 2.9469414014 -9.5641919285 -2.8916055665 2.9711691852 -9.8115369892 
-2.9352780296 2.950425028 -10.056817229 -2.9962578971 2.9862888521 -10.296598883 -3.0614373976 3.0026472426 -10.537397629 
-3.1480640416 3.0173237865 -10.77144981 -3.2331271899 3.0370317538 -11.005705774 -3.288509663 3.025893663 -11.249239601 
-3.320897827 3.0297427036 -11.497102853 -3.3208786737 3.0038642036 -11.745309351 -2.0235998482 3.9580476516 -7.9547512915 
-1.8641792939 4.1284428016 -8.0444763141 -1.703088157 4.2983186837 -8.1321793946 -1.5312487767 4.4435719007 -8.2411414537 
-1.3581433132 4.5892239683 -8.3475368188 -1.1862146091 4.7158958043 -8.4775166889 -1.0186464144 4.8089534404 -8.6380195752 
-0.86800983641 4.8930373924 -8.8189574385 -0.72884017182 4.9763139347 -9.0092120626 -0.59088419752 5.0655988889 -9.1976168027 
-0.45467165021 5.1541236562 -9.3876418208 -0.32760832179 5.2513809607 -9.5797249468 -0.20178605879 5.3528466093 -9.770443274 
-0.086646172337 5.4573309696 -9.9662131005 0.03316044533 5.5673355231 -10.15606929 0.1539268129 5.6761187869 -10.346021089 
0.26904779452 5.7614038547 -10.550895726 0.38126424888 5.8387279751 -10.76048687 0.52095386486 5.9122322598 -10.954352626 
0.65941290954 5.9812120167 -11.150747346 0.83217367741 6.082715558 -11.299200735 -2.0611579752 4.4358891617 -8.8240748816 
-2.2749039929 4.4474172946 -8.9532249573 -2.4981042812 4.4241463158 -9.0634070468 -2.7250734602 4.4038012478 -9.1662227557 
-2.9418091811 4.3703748547 -9.2862573487 -3.1667417949 4.3351481088 -9.3895259095 -3.3871943636 4.2952164277 -9.5004588882 
-3.6033343095 4.2456788972 -9.6159125883 -3.8152564157 4.1965541869 -9.7391026194 -4.0309626123 4.1245192607 -9.8429380958 
-4.2473437712 4.0832631956 -9.9611630135 -4.4655861722 4.0789046166 -10.083028748 -4.6819146229 4.0739012266 -10.208236445 
-4.9124821926 4.0776730423 -10.304799219 -5.1348570088 4.0688567566 -10.418692652 -5.3596202142 4.1049321565 -10.522037062 
[...]
CELL_DATA 451
SCALARS solution%20variable double
LOOKUP_TABLE default
7540.0159691 7299.105593 7051.4367992 6794.8449962 6589.4063359 6376.350412 6156.0267637 5927.6226511 5745.7704597 
5557.085005 5361.8705881 5159.3837335 4998.9566428 4832.431202 4660.0718759 4481.2031369 4340.0769437 4193.5317978 
4041.7973592 3884.2631807 3760.3841371 3631.7057602 3498.4275051 3359.9998304 3251.4105771 3138.5795699 3021.6802203 
2900.2186788 2805.0754616 2706.1854204 2603.6996712 2497.1740421 2413.7556766 2327.0233894 2237.1093879 2143.6125404 
2070.3226129 1994.0910727 1915.0343097 1832.7870543 1768.1522701 1700.88951 1631.1022125 1558.4532081 1501.1221491 
1441.4203536 1379.4409997 1314.8664578 1263.616859 1210.2004062 1154.7025225 1096.8153138 1050.591909 1002.3585815 
952.19514159 899.78846564 857.83307247 813.98750904 768.32195811 720.50463961 682.63272521 643.01785162 601.72548325 
558.39869679 525.05975707 490.2635597 454.09320678 416.20231206 388.63161204 360.257083 331.25137147 301.42096605 
270.4706843 237.92610867 202.96294181 21.984554286 6663.5618991 6529.2736239 6392.2393934 6252.277849 6109.1869448 
5962.740489 5812.6839049 5658.7289832 5500.5473185 5337.761999 5169.9369491 4996.5630565 4817.0398156 4630.6505733 
4436.5284249 4233.6080406 4020.5556042 3795.6633224 3556.6837859 662.42056667 5808.2205498 5685.9725353 5561.1173531 
5433.4743668 5302.8412993 5168.9904253 5031.6638553 4890.5676343 4745.3642658 4595.6631189 4441.0079316 4280.8602625 
4114.577156 3941.3803383 3760.3126546 3570.1746233 3369.4287445 3156.0489379 2927.2709223 589.48466817 5051.5555765 
4941.0672155 4828.1364299 4712.5866153 4594.2190712 4472.8089324 4348.1000836 4219.7987282 4087.5651476 3951.0029877 
3809.6451011 3662.9344837 3510.1980564 3350.6097048 3183.1366532 3006.4589489 2818.8434756 2617.9365153 2400.3994377 
522.01323612 4384.474767 4285.2911134 4183.8492239 4079.9795244 3973.4904038 3864.1639924 3751.7508413 3635.9631285 
3516.465862 3392.8653075 3264.693486 3131.3869802 2992.2572612 2846.4479832 2692.8714808 2530.110563 2356.2591591 
2168.6476402 1963.3307089 460.09280625 3798.0218834 3709.5418699 3619.0003045 3526.2371311 3431.0707988 3333.2940015 
3232.6682684 3128.9169972 3021.7163493 2910.6831413 2795.3584287 2675.1847426 2549.4736978 2417.3584682 2277.721474 
2129.0793677 1969.3897471 1795.7025901 1603.4697466 403.68518597 3283.5300261 3205.0426916 3124.6964325 3042.342584 
2957.8119415 2870.9105714 2781.4144542 2689.0625367 2593.5475742 2494.5038374 2391.4902625 2283.9667941 2171.2602211 
2052.5131714 1926.6048462 1792.0216186 1646.6322533 1487.2645085 1308.8142807 352.62888958 2832.7397501 2763.4632872 
2692.5310181 2619.8069234 2545.1357232 2468.3388514 2389.2092792 2307.504759 2222.9388527 2135.1687911 2043.7786732 
1948.2556166 1847.9548654 1742.0468796 1629.4335333 1508.6080217 1377.4039516 1232.5029112 1068.3358065 306.65511866 
2437.8743223 2376.9916627 2314.6528684 2250.7352791 2185.0984815 2117.5805221 2047.993015 1976.1147189 1901.682959 
1824.3819319 1743.8263921 1659.5382691 1570.9120687 1477.1616838 1377.2347235 1269.6662189 1152.3092353 1021.7856832 
872.1905309 265.39771298 2091.6763654 2038.3640104 1983.7895652 1927.8440397 1870.4023416 1811.3197834 1750.4275493 
1687.5267185 1622.380239 1554.7019204 1484.1409709 1410.2596513 1332.4998839 1250.1313094 1162.1663791 1067.2126227 
963.19377484 846.75850161 711.81060685 228.40698107 1787.4115194 1740.8580658 1693.2305985 1644.433894 1594.3583569 
1542.8768553 1489.8406025 1435.0737044 1378.3658055 1319.461952 1258.0482665 1193.7311006 1126.0056225 1054.2064487 
977.42591324 894.36793769 803.06528678 700.27278223 579.87467464 195.15892521 1518.8522785 1478.2641985 1436.7857689 
1394.3356708 1350.8199847 1306.1293798 1260.1354455 1212.6858192 1163.5975911 1112.6481756 1059.5623458 1003.9932551 
945.4936388 883.46630459 817.08977577 745.18035926 665.92020752 576.24805916 470.19424293 165.05064347 1280.2552714 
1244.8425001 1208.7220501 1171.827109 1134.0800891 1095.3901889 1055.6502028 1014.7322746 972.48213242 928.70923141 
883.17568239 835.58007989 785.5314707 732.50775491 675.7853511 614.31133529 546.44732797 469.3807272 377.44607866 
137.34528693 1066.3480268 1035.2610787 1003.6524008 971.47170562 938.65805107 905.13915006 870.82883253 835.62336378 
799.39643121 761.99215812 723.21510193 682.81547124 640.46642527 595.72754895 547.98255003 496.32466182 439.32331823 
374.47453836 296.56790988 110.9579791 872.35628596 844.46357223 816.22340079 787.60427982 758.56823935 729.06915127 
699.05050748 668.44243315 637.15759387 605.08546024 572.08405335 537.96768045 502.48799373 465.30330651 425.92579794 
383.62325658 337.21563415 284.58323523 221.13725089 83.721387165 694.45057689 668.02169266 641.37109522 614.49340384 
587.38118553 560.02415564 532.40804249 504.5129544 476.31099644 447.76273117 418.81181212 389.37663372 359.33691099 
328.51118719 296.61698278 263.19460917 227.4448154 187.82074044 140.66792231 50.693107394 532.57821985 506.3656049 
479.96196428 453.36948815 426.59042002 399.62708286 372.48191273 345.15750193 317.65665324 289.98244334 262.13828113 
234.12790501 205.95512677 177.62266234 149.12767551 120.44462811 91.451907855 61.538128824 23.483742869 390.42348004 
364.15869029 337.65683781 310.88929538 283.80785545 256.33005794 228.31125638 199.48774645 169.34890424 136.80006761 
98.971463932 26.654940152 7624.6134271 7708.2293942 7791.0494419 7873.099528 7954.4042892 8034.9871321 8114.8703169 
8194.0750334 8272.6214707 8350.5288814 8427.8156404 8504.4992992 8580.5966356 8656.1237005 8731.0958597 8803.2700325 
8875.0529778 8946.357571 9017.195644 9087.5785735 9157.5173046 9227.0223726 9296.103924 9352.0271805 9407.7691747 
9463.2783676 9518.559156 9573.6158072 9628.4524647 9683.0731522 9737.4817787 9769.326079 9801.1783133 9833.0213877 
9864.8555516 9896.6810416 9928.498082 9960.3068844 9992.1076489 9992.105567 8866.896825 10085.533503 11113.883549 
11932.33392 
