# vtk DataFile Version 5.1
vtk output
ASCII
DATASET UNSTRUCTURED_GRID
POINTS 474 double
0 0 -3 -0.11344901018 0.17758382911 -3.1345113591 -0.25315847539 0.33878440002 -3.2648786912 
-0.38126193464 0.50363826191 -3.4024021726 -0.5126230829 0.66576812132 -3.5400907975 -0.65843420624 0.83063257984 -3.6586607204 
-0.82297351213 0.96639713451 -3.7890248355 -0.97532665543 1.1205572503 -3.9136168835 -1.1248934303 1.2712178784 -4.0456439831 
-1.260480867 1.4416481412 -4.1684021702 -1.3678821889 1.6074581306 -4.3216079256 -1.4660695894 1.784059061 -4.4688198332 
-1.5694943891 1.9404801104 -4.6341551474 -1.6843141616 2.0801145574 -4.8068358964 -1.7920938126 2.214324268 -4.9881403376 
-1.8953148049 2.3800598251 -5.1442721788 -1.9325266326 2.5204028889 -5.3477890193 -1.973129178 2.6634701459 -5.548744719 
-1.9865147688 2.7616205381 -5.7782819197 -2.0072616269 2.8605132642 -6.0069515429 -2.0326142165 2.9638917436 -6.2331597129 
-1.9920842053 3.0592208557 -6.4606892244 -1.9658829099 3.1812169213 -6.6773235986 -1.95489032 3.3115244098 -6.8903942944 
-1.9618163346 3.4463146723 -7.10083102 -1.9595558315 3.5807523934 -7.3115948434 -1.9591600912 3.7034011527 -7.5294414069 
-1.9922335507 3.8261433401 -7.744709848 -2.0235998482 3.9580476516 -7.9547512915 -2.053410198 4.0821397433 -8.16972221 
-2.0922570198 4.2101350542 -8.380928566 -2.0673262565 4.3390293584 -8.5936836256 -2.0611579752 4.4358891617 -8.8240748816 
-2.0457609566 4.5389463916 -9.0513239502 -2.0376118219 4.6474567449 -9.2763997037 -2.0620327306 4.7344755807 -9.5094905474 
-2.0678249667 4.7919692102 -9.7527207523 -2.0538188065 4.7894724803 -10.002315612 -2.061454029 4.7954964511 -10.25212637 
-2.0748719743 4.7792135014 -10.501234428 -2.0879807121 4.7450832286 -10.748546549 -2.1011430636 4.7103243177 -10.995768253 
-2.1002295418 4.7008537725 -11.245587136 -2.1048346881 4.6894878057 -11.495286169 -2.0641472069 4.6880886783 -11.741949039 
-2.0210511199 4.6768675797 -11.987950694 -1.9835084387 4.6483785121 -12.233468351 -1.9506827239 4.6230643942 -12.480007736 
-1.9004712217 4.6381689642 -12.724447211 -1.8375331244 4.6537107888 -12.96589544 -1.7745908329 4.6759472614 -13.206818265 
-1.7324654219 4.637703043 -13.450257845 -1.6671038275 4.5609504363 -13.679030438 -1.598399743 4.4811403079 -13.905768376 
-1.5362405788 4.3949975328 -14.132077148 -1.4802902991 4.3079524624 -14.359657292 -1.4132617365 4.2082396067 -14.578893508 
-1.3346237404 4.1025622853 -14.791374964 -1.2639046148 4.0215870271 -15.017077895 -1.1811068059 3.9440623254 -15.239865784 
-1.0986307142 3.8389919159 -15.45118995 -0.9637992344 3.7108445705 -15.618219079 -0.83607035007 3.5887696699 -15.795089231 
-0.67316557472 3.4694079904 -15.942448736 -0.49469270494 3.3540019539 -16.074087946 -0.32610371771 3.2396122859 -16.218976721 
-0.14820477506 3.1356714575 -16.360568636 0.012364935668 3.0233302117 -16.515800116 0.1549159304 2.9000749565 -16.680078405 
0.27000396814 2.7652117596 -16.856335778 0.3829086188 2.6314831379 -17.034855232 0.49747072388 2.4976228367 -17.212216287 
0.60083379182 2.4004242314 -17.418052405 0.66797056282 2.2936634265 -17.633910656 0.75017747883 2.1834571348 -17.842708636 
0.82913521304 2.0737203209 -18.053002496 0.84139766799 2.0604437881 -18.08156333 -0.5126230829 0.66576812132 -3.5400907975 
-0.52277406038 0.77956108233 -3.7624601292 -0.53449030145 0.89788545023 -3.982373916 -0.53515452505 1.0082199251 -4.2067081811 
-0.53644590475 1.1144897642 -4.4329935178 -0.53696454607 1.2507070137 -4.6426231721 -0.51878168185 1.3625180934 -4.8654856093 
-0.50273855675 1.4613674127 -5.0945520412 -0.49082816941 1.5488159746 -5.328455636 -0.53649707025 1.6336061495 -5.5591610277 
-0.58531137867 1.7180366746 -5.7893536638 -0.67092791921 1.7968155302 -6.0106310912 -0.74962718774 1.8695191762 -6.2365085027 
-0.83361798078 1.9305568324 -6.4639287111 -0.91700232593 1.9931029055 -6.6911621587 -0.9753928223 2.0369035191 -6.930268947 
-1.0475750197 2.0677300162 -7.1676282894 -1.1009443958 2.0963864931 -7.4101783173 -1.0913733021 2.1254249614 -7.6583015962 
-1.0949643175 2.1422303757 -7.9077102622 -1.0664266342 2.165504346 -8.1548653099 -1.1248934303 1.2712178784 -4.0456439831 
-1.3701105494 1.2938911888 -4.0025802454 -1.6157087444 1.3095406912 -3.9585732041 -1.8617989566 1.2971902892 -3.9162993943 
-2.1048102068 1.2871864009 -3.8584594899 -2.3536918581 1.2700404026 -3.8422133105 -2.6027259385 1.2509731012 -3.853097466 
-2.8484396668 1.2518422052 -3.8991844311 -3.0916583036 1.2465957369 -3.9567793032 -3.3338077351 1.2274596438 -4.0159186538 
-3.5641759617 1.2403219499 -4.1121737381 -3.7912733809 1.2235452575 -4.2153498243 -4.0204382622 1.2355273717 -4.3145460244 
-4.2478450942 1.2493184055 -4.4174826076 -4.4834828557 1.2739945955 -4.4972693924 -4.7217834282 1.3027450896 -4.567171082 
-4.9607669071 1.3311838138 -4.6348330046 -5.199558466 1.3700473821 -4.6978267701 -5.4302756926 1.4046385181 -4.7876767264 
-5.6506628044 1.4263130494 -4.9036928272 -5.8669179291 1.4821841882 -5.0156676629 -1.5694943891 1.9404801104 -4.6341551474 
-1.4895185985 2.1771164887 -4.6238063594 -1.381831314 2.3982210442 -4.5789039731 -1.2633369749 2.613011121 -4.5306928281 
-1.1462127147 2.8284302862 -4.4819435621 -1.0110186488 3.0229077887 -4.4019369025 -0.87475765502 3.2163027526 -4.3211202613 
-0.70885179817 3.3900448113 -4.2519180669 -0.54644443097 3.5633239055 -4.1738270778 -0.35505468441 3.7110359584 -4.1101787129 
-0.1483501848 3.8487343787 -4.0816761715 0.067808343634 3.9732436541 -4.0651555501 0.28749992486 4.0913120878 -4.0479667714 
0.50374755256 4.2143802933 -4.0236525716 0.73000447932 4.3146703998 -3.988301509 0.94938943915 4.4138568734 -3.9209792775 
1.1649049221 4.5245782177 -3.8593849555 1.3613181123 4.6701551205 -3.8071429788 1.5518888171 4.8233410947 -3.7550194358 
1.7445140987 4.9527028979 -3.6619548088 1.9520510821 5.0706612644 -3.5883375689 -1.9325266326 2.5204028889 -5.3477890193 
-2.0959306286 2.7087500879 -5.365801979 -2.2633102792 2.8933902522 -5.385602541 -2.4178782198 3.0885612485 -5.4083409222 
-2.5479432722 3.3001525355 -5.43684021 -2.6787178666 3.5102060499 -5.4725547247 -2.8107433098 3.7194501556 -5.5084181681 
-2.9413858908 3.9308341965 -5.5357915725 -3.0679742596 4.1429310387 -5.574396163 -3.2382620752 4.3194711085 -5.6227248669 
-3.4034421657 4.4981947511 -5.679938478 -3.5627383883 4.6713598955 -5.7644283958 -3.7260812147 4.8202216789 -5.8813013633 
-3.8851823596 4.9781299918 -5.9919891692 -4.0318882388 5.1192579924 -6.1371107474 -4.1776034972 5.267674107 -6.2758180666 
-4.3006385034 5.4063912843 -6.4435080543 -4.3993083167 5.5617470301 -6.612708705 -4.4888422999 5.7516090069 -6.7484882896 
-4.5691850661 5.9608949852 -6.8591427934 -4.6250139927 6.1476728782 -7.0152628647 -2.0326142165 2.9638917436 -6.2331597129 
-1.8379661322 2.9856981232 -6.3885193121 -1.6391598511 3.01010672 -6.5381197233 -1.4501474801 3.0433683747 -6.6983320385 
-1.259729815 3.1333976635 -6.8330014113 -1.0836211307 3.1947706356 -6.9994919203 -0.90834424086 3.2595978692 -7.1655504693 
-0.7571583047 3.3005064676 -7.3604075946 -0.60996519126 3.3440873206 -7.5577268704 -0.49002972453 3.3894289805 -7.7723419158 
-0.36913794691 3.4240836293 -7.988407261 -0.25986560906 3.4360709529 -8.212942025 -0.15574965957 3.4430170546 -8.4401239362 
-0.037148734201 3.3980559853 -8.65555913 0.11474077309 3.3523152081 -8.8487879034 0.25761539666 3.307527632 -9.0489900887 
0.37134473956 3.3170620605 -9.2714192487 0.45184428968 3.4066055838 -9.4905123337 0.52755006512 3.4859579188 -9.7151717258 
0.61963079677 3.5558990082 -9.9368232155 0.71155600796 3.6256716727 -10.158220968 -1.9618163346 3.4463146723 -7.10083102 
-2.0309726592 3.3358535308 -7.3141751996 -2.104616748 3.2322445112 -7.5294464686 -2.190188981 3.1546980797 -7.751175907 
-2.2976904794 3.0825969981 -7.9650563921 -2.3991063146 3.0081621014 -8.1810986901 -2.5152911443 2.932724715 -8.3892099249 
-2.6353777226 2.9151416721 -8.607773532 -2.7375207027 2.9036163259 -8.8356638083 -2.8064497636 2.8770738805 -9.0745032588 
-2.8451554793 2.8922226211 -9.3210238122 -2.8645235536 2.9469414014 -9.5641919285 -2.8916055665 2.9711691852 -9.8115369892 
-2.9352780296 2.950425028 -10.056817229 -2.9962578971 2.9862888521 -10.296598883 -3.0614373976 3.0026472426 -10.537397629 
-3.1480640416 3.0173237865 -10.77144981 -3.2331271899 3.0370317538 -11.005705774 -3.288509663 3.025893663 -11.249239601 
-3.320897827 3.0297427036 -11.497102853 -3.3208786737 3.0038642036 -11.745309351 -2.0235998482 3.9580476516 -7.9547512915 
-1.8641792939 4.1284428016 -8.0444763141 -1.703088157 4.2983186837 -8.1321793946 -1.5312487767 4.4435719007 -8.2411414537 
-1.3581433132 4.5892239683 -8.3475368188 -1.1862146091 4.7158958043 -8.4775166889 -1.0186464144 4.8089534404 -8.6380195752 
-0.86800983641 4.8930373924 -8.8189574385 -0.72884017182 4.9763139347 -9.0092120626 -0.59088419752 5.0655988889 -9.1976168027 
-0.45467165021 5.1541236562 -9.3876418208 -0.32760832179 5.2513809607 -9.5797249468 -0.20178605879 5.3528466093 -9.770443274 
-0.086646172337 5.4573309696 -9.9662131005 0.03316044533 5.5673355231 -10.15606929 0.1539268129 5.6761187869 -10.346021089 
0.26904779452 5.7614038547 -10.550895726 0.38126424888 5.8387279751 -10.76048687 0.52095386486 5.9122322598 -10.954352626 
0.65941290954 5.9812120167 -11.150747346 0.83217367741 6.082715558 -11.299200735 -2.0611579752 4.4358891617 -8.8240748816 
-2.2749039929 4.4474172946 -8.9532249573 -2.4981042812 4.4241463158 -9.0634070468 -2.7250734602 4.4038012478 -9.1662227557 
-2.9418091811 4.3703748547 -9.2862573487 -3.1667417949 4.3351481088 -9.3895259095 -3.3871943636 4.2952164277 -9.5004588882 
-3.6033343095 4.2456788972 -9.6159125883 -3.8152564157 4.1965541869 -9.7391026194 -4.0309626123 4.1245192607 -9.8429380958 
-4.2473437712 4.0832631956 -9.9611630135 -4.4655861722 4.0789046166 -10.083028748 -4.6819146229 4.0739012266 -10.208236445 
-4.9124821926 4.0776730423 -10.304799219 -5.1348570088 4.0688567566 -10.418692652 -5.3596202142 4.1049321565 -10.522037062 
[...]
CELL_DATA 451
SCALARS solution%20variable double
LOOKUP_TABLE default
7551.9799838 7310.8807611 7063.0182622 6806.2282679 6600.6241896 6387.3981264 6166.899805 5938.3168948 5756.3206252 
5567.4869646 5372.1203459 5169.477808 5008.9312234 4842.2830326 4669.7977718 4490.8005882 4349.5831631 4202.9447223 
4051.1149322 3893.4842477 3769.5465633 3640.8090525 3507.4711057 3368.9843957 3260.3743441 3147.5240668 3030.6068298 
2909.1304151 2814.0107184 2715.1482962 2612.6940242 2506.2059165 2422.8633464 2336.2142004 2246.3903319 2152.993532 
2079.8412549 2003.7588032 1924.862079 1842.7897251 1778.3654613 1711.3298197 1641.7856007 1569.4009078 1512.3648036 
1452.9810746 1391.3421203 1327.1375157 1276.2765152 1223.2799145 1168.2323087 1110.8358603 1065.0912801 1017.377422 
967.77351601 915.98193967 874.54838642 831.27355566 786.228354 739.10213528 701.67777004 662.55365387 621.79628671 
579.07511506 546.04788238 511.58121519 475.75222275 438.23542145 410.80331389 382.50720906 353.49115623 323.55156159 
292.38607296 259.52293216 224.17094264 23.308227557 6674.8613694 6540.4850844 6403.3584131 6263.2999503 6120.1076144 
5973.5551933 5823.3881105 5669.3181861 5511.0170829 5348.1080127 5180.1550992 5006.6495378 4826.9912832 4640.4643659 
4446.2028936 4243.1430473 4029.9532973 3804.9293875 3565.8295537 663.42890884 5818.8271543 5696.4866109 5571.5337785 
5443.7879269 5313.0466909 5179.0822661 5041.6366983 4900.4159888 4755.0826291 4605.246022 4450.4500076 4290.1563471 
4123.7224382 3950.3705896 3769.144584 3578.8464432 3377.9411007 3164.4065062 2935.4852987 590.48458047 5061.5597378 
4950.9758649 4837.9437165 4722.2865411 4603.8054904 4482.2755527 4357.4404715 4229.0063194 4096.6332656 3959.9248764 
3818.4139756 3671.5436141 3518.6409006 3358.8801247 3191.2292694 3014.3697416 2826.5708373 2625.4831868 2407.7763136 
523.00606522 4393.9816094 4294.7010084 4193.1555445 4089.175439 3982.5688678 3873.1177404 3760.5723809 3644.6447375 
3524.9995912 3401.2429924 3272.9067749 3139.4273884 3000.1162709 2854.1172227 2700.343046 2537.3776046 2363.3169948 
2175.4959712 1969.9783986 461.08249506 3807.153147 3718.5761999 3627.9302275 3535.0549076 3439.7684055 3341.863114 
3241.1002418 3137.2028484 3029.8467395 2918.648364 2803.1484065 2682.7890428 2556.881583 2424.5590145 2284.7038208 
2135.833232 1975.9065023 1801.9776405 1609.5082201 404.67907862 3292.4269995 3213.8440587 3133.3937574 3050.9270962 
2966.2745101 2879.2416757 2789.6041516 2697.1004266 2601.4227593 2502.204883 2399.0051569 2291.2829156 2178.3643254 
2059.391425 1933.2429645 1798.4052411 1652.7478745 1493.1018221 1314.3725745 353.63864975 2841.5675069 2772.1980088 
2701.1631144 2628.3263916 2553.5321113 2476.6012174 2397.3261437 2315.4640499 2230.7278424 2142.7740234 2051.1858815 
1955.4496343 1854.919535 1748.7649786 1635.8867609 1514.7771613 1383.2695212 1238.0472271 1073.5496779 307.69761298 
2446.8275526 2385.8559035 2323.4170787 2259.387907 2193.6274179 2125.9730465 2056.2357305 1984.1934767 1909.5827667 
1832.0868451 1751.3193834 1666.8010722 1577.9249948 1483.903415 1383.6821052 1275.7941331 1158.0908179 1027.1937974 
877.20415132 266.49687968 2100.986637 2047.5915563 1992.9214443 1936.8666691 1879.3014378 1820.0802917 1759.0335597 
1695.9613642 1630.6255727 1562.7387625 1491.9487211 1417.8160524 1339.7807264 1257.1100596 1168.8137248 1073.4959601 
969.07680378 852.20214869 716.77800781 229.59544934 1797.3560381 1750.7302461 1703.0149492 1654.1140935 1603.9171766 
1552.2960697 1499.1008794 1444.1544717 1387.2450871 1328.1161616 1266.4519473 1201.8565896 1133.8226122 1061.6814063 
984.52130402 901.04169769 809.26922256 705.95164948 584.96913917 196.48178615 1529.7633096 1489.1215129 1447.5704167 
1405.0275764 1361.3978467 1316.5705516 1270.4157911 1222.7795363 1173.4769916 1122.2834075 1068.9210361 1013.0400409 
954.18953886 891.76850148 824.94992675 752.54293862 672.72014104 582.40764431 475.62198546 166.57078109 1292.5298017 
1257.099865 1220.9386563 1183.9777178 1146.1376729 1107.3257609 1067.4326136 1026.3279632 983.85481802 939.82030011 
893.98303938 846.03751691 795.58780804 742.10564242 684.85953571 622.78606409 554.23231275 476.36480464 383.48907047 
139.15750857 1080.4577811 1049.4359156 1017.8631159 985.68638648 952.84278455 919.25690603 884.83914625 849.48195939 
813.05476623 775.39685908 736.30724639 695.52964661 652.72945291 607.45668763 559.08285366 506.68489181 448.80923789 
382.91721707 303.74324696 113.24008496 888.8451277 861.22664301 833.22990217 804.81864757 775.94958068 746.57060984 
716.61854089 686.01598147 654.66710884 622.45174972 589.2168719 554.76395574 518.82950687 481.05351165 440.92520682 
397.68226911 350.10244855 296.0013264 230.67883208 86.883416559 713.70172203 687.92517327 661.90935187 635.64318228 
609.11232032 582.29806152 555.17584116 527.71314526 499.8665547 471.57748205 442.76587935 413.32068251 383.08477266 
351.83020609 319.21492184 284.7008091 247.38041998 205.54445283 155.25551837 55.401050874 554.00921751 528.565414 
502.92658002 477.09472659 451.07176942 424.85946016 398.45925796 371.8720896 345.09789842 318.13478428 290.97733191 
263.61327701 236.01663155 208.13288001 179.84518731 150.89056956 120.62278005 87.156575382 34.761659645 412.96533517 
387.17702591 361.07413275 334.59837665 307.66133722 280.12563476 251.77101177 222.22848757 190.83801087 156.2848965 
115.35670234 30.332495559 7636.6436333 7720.3207994 7803.1971635 7885.298792 7966.6504261 8047.2755735 8127.1965916 
8206.4347645 8285.0103726 8362.9427567 8440.2503778 8516.9508708 8593.0610947 8668.5971795 8743.5745682 8815.7527368 
8887.5358158 8958.8368841 9029.667845 9100.0401449 9169.9647974 9239.452405 9308.51318 9364.4286679 9420.1591264 
9475.653169 9530.9152539 9585.9497095 9640.7607396 9695.3524278 9749.7287422 9781.5648511 9813.405063 9845.2323552 
9877.047018 9908.8493301 9940.6395578 9972.417956 10004.184768 10004.182857 8879.226684 10096.951269 11124.497132 
11942.213284 
