# vtk DataFile Version 5.1
vtk output
ASCII
DATASET UNSTRUCTURED_GRID
POINTS 474 double
0 0 -3 -0.11344901018 0.17758382911 -3.1345113591 -0.25315847539 0.33878440002 -3.2648786912 
-0.38126193464 0.50363826191 -3.4024021726 -0.5126230829 0.66576812132 -3.5400907975 -0.65843420624 0.83063257984 -3.6586607204 
-0.82297351213 0.96639713451 -3.7890248355 -0.97532665543 1.1205572503 -3.9136168835 -1.1248934303 1.2712178784 -4.0456439831 
-1.260480867 1.4416481412 -4.1684021702 -1.3678821889 1.6074581306 -4.3216079256 -1.4660695894 1.784059061 -4.4688198332 
-1.5694943891 1.9404801104 -4.6341551474 -1.6843141616 2.0801145574 -4.8068358964 -1.7920938126 2.214324268 -4.9881403376 
-1.8953148049 2.3800598251 -5.1442721788 -1.9325266326 2.5204028889 -5.3477890193 -1.973129178 2.6634701459 -5.548744719 
-1.9865147688 2.7616205381 -5.7782819197 -2.0072616269 2.8605132642 -6.0069515429 -2.0326142165 2.9638917436 -6.2331597129 
-1.9920842053 3.0592208557 -6.4606892244 -1.9658829099 3.1812169213 -6.6773235986 -1.95489032 3.3115244098 -6.8903942944 
-1.9618163346 3.4463146723 -7.10083102 -1.9595558315 3.5807523934 -7.3115948434 -1.9591600912 3.7034011527 -7.5294414069 
-1.9922335507 3.8261433401 -7.744709848 -2.0235998482 3.9580476516 -7.9547512915 -2.053410198 4.0821397433 -8.16972221 
-2.0922570198 4.2101350542 -8.380928566 -2.0673262565 4.3390293584 -8.5936836256 -2.0611579752 4.4358891617 -8.8240748816 
-2.0457609566 4.5389463916 -9.0513239502 -2.0376118219 4.6474567449 -9.2763997037 -2.0620327306 4.7344755807 -9.5094905474 
-2.0678249667 4.7919692102 -9.7527207523 -2.0538188065 4.7894724803 -10.002315612 -2.061454029 4.7954964511 -10.25212637 
-2.0748719743 4.7792135014 -10.501234428 -2.0879807121 4.7450832286 -10.748546549 -2.1011430636 4.7103243177 -10.995768253 
-2.1002295418 4.7008537725 -11.245587136 -2.1048346881 4.6894878057 -11.495286169 -2.0641472069 4.6880886783 -11.741949039 
-2.0210511199 4.6768675797 -11.987950694 -1.9835084387 4.6483785121 -12.233468351 -1.9506827239 4.6230643942 -12.480007736 
-1.9004712217 4.6381689642 -12.724447211 -1.8375331244 4.6537107888 -12.96589544 -1.7745908329 4.6759472614 -13.206818265 
-1.7324654219 4.637703043 -13.450257845 -1.6671038275 4.5609504363 -13.679030438 -1.598399743 4.4811403079 -13.905768376 
-1.5362405788 4.3949975328 -14.132077148 -1.4802902991 4.3079524624 -14.359657292 -1.4132617365 4.2082396067 -14.578893508 
-1.3346237404 4.1025622853 -14.791374964 -1.2639046148 4.0215870271 -15.017077895 -1.1811068059 3.9440623254 -15.239865784 
-1.0986307142 3.8389919159 -15.45118995 -0.9637992344 3.7108445705 -15.618219079 -0.83607035007 3.5887696699 -15.795089231 
-0.67316557472 3.4694079904 -15.942448736 -0.49469270494 3.3540019539 -16.074087946 -0.32610371771 3.2396122859 -16.218976721 
-0.14820477506 3.1356714575 -16.360568636 0.012364935668 3.0233302117 -16.515800116 0.1549159304 2.9000749565 -16.680078405 
0.27000396814 2.7652117596 -16.856335778 0.3829086188 2.6314831379 -17.034855232 0.49747072388 2.4976228367 -17.212216287 
0.60083379182 2.4004242314 -17.418052405 0.66797056282 2.2936634265 -17.633910656 0.75017747883 2.1834571348 -17.842708636 
0.82913521304 2.0737203209 -18.053002496 0.84139766799 2.0604437881 -18.08156333 -0.5126230829 0.66576812132 -3.5400907975 
-0.52277406038 0.77956108233 -3.7624601292 -0.53449030145 0.89788545023 -3.982373916 -0.53515452505 1.0082199251 -4.2067081811 
-0.53644590475 1.1144897642 -4.4329935178 -0.53696454607 1.2507070137 -4.6426231721 -0.51878168185 1.3625180934 -4.8654856093 
-0.50273855675 1.4613674127 -5.0945520412 -0.49082816941 1.5488159746 -5.328455636 -0.53649707025 1.6336061495 -5.5591610277 
-0.58531137867 1.7180366746 -5.7893536638 -0.67092791921 1.7968155302 -6.0106310912 -0.74962718774 1.8695191762 -6.2365085027 
-0.83361798078 1.9305568324 -6.4639287111 -0.91700232593 1.9931029055 -6.6911621587 -0.9753928223 2.0369035191 -6.930268947 
-1.0475750197 2.0677300162 -7.1676282894 -1.1009443958 2.0963864931 -7.4101783173 -1.0913733021 2.1254249614 -7.6583015962 
-1.0949643175 2.1422303757 -7.9077102622 -1.0664266342 2.165504346 -8.1548653099 -1.1248934303 1.2712178784 -4.0456439831 
-1.3701105494 1.2938911888 -4.0025802454 -1.6157087444 1.3095406912 -3.9585732041 -1.8617989566 1.2971902892 -3.9162993943 
-2.1048102068 1.2871864009 -3.8584594899 -2.3536918581 1.2700404026 -3.8422133105 -2.6027259385 1.2509731012 -3.853097466 
-2.8484396668 1.2518422052 -3.8991844311 -3.0916583036 1.2465957369 -3.9567793032 -3.3338077351 1.2274596438 -4.0159186538 
-3.5641759617 1.2403219499 -4.1121737381 -3.7912733809 1.2235452575 -4.2153498243 -4.0204382622 1.2355273717 -4.3145460244 
-4.2478450942 1.2493184055 -4.4174826076 -4.4834828557 1.2739945955 -4.4972693924 -4.7217834282 1.3027450896 -4.567171082 
-4.9607669071 1.3311838138 -4.6348330046 -5.199558466 1.3700473821 -4.6978267701 -5.4302756926 1.4046385181 -4.7876767264 
-5.6506628044 1.4263130494 -4.9036928272 -5.8669179291 1.4821841882 -5.0156676629 -1.5694943891 1.9404801104 -4.6341551474 
-1.4895185985 2.1771164887 -4.6238063594 -1.381831314 2.3982210442 -4.5789039731 -1.2633369749 2.613011121 -4.5306928281 
-1.1462127147 2.8284302862 -4.4819435621 -1.0110186488 3.0229077887 -4.4019369025 -0.87475765502 3.2163027526 -4.3211202613 
-0.70885179817 3.3900448113 -4.2519180669 -0.54644443097 3.5633239055 -4.1738270778 -0.35505468441 3.7110359584 -4.1101787129 
-0.1483501848 3.8487343787 -4.0816761715 0.067808343634 3.9732436541 -4.0651555501 0.28749992486 4.0913120878 -4.0479667714 
0.50374755256 4.2143802933 -4.0236525716 0.73000447932 4.3146703998 -3.988301509 0.94938943915 4.4138568734 -3.9209792775 
1.1649049221 4.5245782177 -3.8593849555 1.3613181123 4.6701551205 -3.8071429788 1.5518888171 4.8233410947 -3.7550194358 
1.7445140987 4.9527028979 -3.6619548088 1.9520510821 5.0706612644 -3.5883375689 -1.9325266326 2.5204028889 -5.3477890193 
-2.0959306286 2.7087500879 -5.365801979 -2.2633102792 2.8933902522 -5.385602541 -2.4178782198 3.0885612485 -5.4083409222 
-2.5479432722 3.3001525355 -5.43684021 -2.6787178666 3.5102060499 -5.4725547247 -2.8107433098 3.7194501556 -5.5084181681 
-2.9413858908 3.9308341965 -5.5357915725 -3.0679742596 4.1429310387 -5.574396163 -3.2382620752 4.3194711085 -5.6227248669 
-3.4034421657 4.4981947511 -5.679938478 -3.5627383883 4.6713598955 -5.7644283958 -3.7260812147 4.8202216789 -5.8813013633 
-3.8851823596 4.9781299918 -5.9919891692 -4.0318882388 5.1192579924 -6.1371107474 -4.1776034972 5.267674107 -6.2758180666 
-4.3006385034 5.4063912843 -6.4435080543 -4.3993083167 5.5617470301 -6.612708705 -4.4888422999 5.7516090069 -6.7484882896 
-4.5691850661 5.9608949852 -6.8591427934 -4.6250139927 6.1476728782 -7.0152628647 -2.0326142165 2.9638917436 -6.2331597129 
-1.8379661322 2.9856981232 -6.3885193121 -1.6391598511 3.01010672 -6.5381197233 -1.4501474801 3.0433683747 -6.6983320385 
-1.259729815 3.1333976635 -6.8330014113 -1.0836211307 3.1947706356 -6.9994919203 -0.90834424086 3.2595978692 -7.1655504693 
-0.7571583047 3.3005064676 -7.3604075946 -0.60996519126 3.3440873206 -7.5577268704 -0.49002972453 3.3894289805 -7.7723419158 
-0.36913794691 3.4240836293 -7.988407261 -0.25986560906 3.4360709529 -8.212942025 -0.15574965957 3.4430170546 -8.4401239362 
-0.037148734201 3.3980559853 -8.65555913 0.11474077309 3.3523152081 -8.8487879034 0.25761539666 3.307527632 -9.0489900887 
0.37134473956 3.3170620605 -9.2714192487 0.45184428968 3.4066055838 -9.4905123337 0.52755006512 3.4859579188 -9.7151717258 
0.61963079677 3.5558990082 -9.9368232155 0.71155600796 3.6256716727 -10.158220968 -1.9618163346 3.4463146723 -7.10083102 
-2.0309726592 3.3358535308 -7.3141751996 -2.104616748 3.2322445112 -7.5294464686 -2.190188981 3.1546980797 -7.751175907 
-2.2976904794 3.0825969981 -7.9650563921 -2.3991063146 3.0081621014 -8.1810986901 -2.5152911443 2.932724715 -8.3892099249 
-2.6353777226 2.9151416721 -8.607773532 -2.7375207027 2.9036163259 -8.8356638083 -2.8064497636 2.8770738805 -9.0745032588 
-2.8451554793 2.8922226211 -9.3210238122 -2.8645235536 2.9469414014 -9.5641919285 -2.8916055665 2.9711691852 -9.8115369892 
-2.9352780296 2.950425028 -10.056817229 -2.9962578971 2.9862888521 -10.296598883 -3.0614373976 3.0026472426 -10.537397629 
-3.1480640416 3.0173237865 -10.77144981 -3.2331271899 3.0370317538 -11.005705774 -3.288509663 3.025893663 -11.249239601 
-3.320897827 3.0297427036 -11.497102853 -3.3208786737 3.0038642036 -11.745309351 -2.0235998482 3.9580476516 -7.9547512915 
-1.8641792939 4.1284428016 -8.0444763141 -1.703088157 4.2983186837 -8.1321793946 -1.5312487767 4.4435719007 -8.2411414537 
-1.3581433132 4.5892239683 -8.3475368188 -1.1862146091 4.7158958043 -8.4775166889 -1.0186464144 4.8089534404 -8.6380195752 
-0.86800983641 4.8930373924 -8.8189574385 -0.72884017182 4.9763139347 -9.0092120626 -0.59088419752 5.0655988889 -9.1976168027 
-0.45467165021 5.1541236562 -9.3876418208 -0.32760832179 5.2513809607 -9.5797249468 -0.20178605879 5.3528466093 -9.770443274 
-0.086646172337 5.4573309696 -9.9662131005 0.03316044533 5.5673355231 -10.15606929 0.1539268129 5.6761187869 -10.346021089 
0.26904779452 5.7614038547 -10.550895726 0.38126424888 5.8387279751 -10.76048687 0.52095386486 5.9122322598 -10.954352626 
0.65941290954 5.9812120167 -11.150747346 0.83217367741 6.082715558 -11.299200735 -2.0611579752 4.4358891617 -8.8240748816 
-2.2749039929 4.4474172946 -8.9532249573 -2.4981042812 4.4241463158 -9.0634070468 -2.7250734602 4.4038012478 -9.1662227557 
-2.9418091811 4.3703748547 -9.2862573487 -3.1667417949 4.3351481088 -9.3895259095 -3.3871943636 4.2952164277 -9.5004588882 
-3.6033343095 4.2456788972 -9.6159125883 -3.8152564157 4.1965541869 -9.7391026194 -4.0309626123 4.1245192607 -9.8429380958 
-4.2473437712 4.0832631956 -9.9611630135 -4.4655861722 4.0789046166 -10.083028748 -4.6819146229 4.0739012266 -10.208236445 
-4.9124821926 4.0776730423 -10.304799219 -5.1348570088 4.0688567566 -10.418692652 -5.3596202142 4.1049321565 -10.522037062 
[...]
CELL_DATA 451
SCALARS solution%20variable double
LOOKUP_TABLE default
7582.2944464 7340.7173006 7092.3646234 6835.0731379 6629.0505149 6415.3940083 6194.4538234 5965.4186684 5783.0581207 
5593.8498112 5398.0985104 5195.0625648 5034.214407 4867.2565203 4694.4536287 4515.1325971 4373.6859705 4226.8132954 
4074.7442641 3916.8716357 3792.788637 3663.9048666 3530.4195632 3391.7875073 3283.1301827 3170.2369776 3053.2808037 
2931.773629 2836.7223998 2737.9395536 2635.5753716 2529.1934841 2446.0572011 2359.6340305 2270.0549367 2176.9292191 
2104.1481108 2028.4673463 1950.0015694 1868.3994477 1804.5430649 1738.1194249 1669.2296091 1597.5551318 1541.3182178 
1482.7947436 1422.0748356 1358.8661172 1309.0668405 1257.2137098 1203.3884334 1147.3177094 1102.9048139 1056.6276885 
1008.5621205 958.44635718 918.53256317 876.90365451 833.62774149 788.44118841 752.40782036 714.78305443 675.62911195 
634.67187909 602.47084516 568.83850192 533.8302329 497.15701352 470.15887786 442.13643963 413.17284395 383.04851419 
351.45437314 317.93608596 281.78435321 26.597655011 6703.494246 6568.8953617 6431.5349265 6291.2314206 6147.7826757 
6000.9624316 5850.5161168 5696.1556294 5537.5528104 5374.3311887 5206.0553986 5032.2174179 4852.2183728 4665.344027 
4470.7310531 4267.3194524 4053.78347 3828.4277714 3589.0248066 665.98033862 5845.7070436 5723.1322925 5597.9323493 
5469.9262502 5338.9114113 5204.6598332 5066.9134031 4925.3780179 4779.7161449 4629.53728 4474.3855293 4313.7231757 
4146.9085201 3973.1653546 3791.5398436 3600.8378182 3399.5303671 3185.6056134 2956.3236327 593.01480247 5086.9165912 
4976.0907041 4862.8018003 4746.8727618 4628.1043714 4506.2712534 4381.1168001 4252.3467609 4119.6210306 3982.5429823 
3840.6453797 3693.3714245 3540.0487159 3379.8525812 3211.7529417 3034.4346616 2846.1731516 2644.6300374 2426.4954049 
525.51851687 4418.0835674 4318.5569385 4216.7487521 4112.4887186 4005.5844815 3895.817399 3782.9372298 3666.6553502 
3546.6359772 3422.4846294 3293.7326814 3159.8162635 3020.0467506 2873.5683368 2719.2950358 2555.8134136 2381.2250815 
2192.8759063 1986.8528924 463.5872231 3830.3119511 3741.4884464 3650.5770929 3557.4169022 3461.8253313 3363.5940196 
3262.4833766 3158.2156166 3050.4656597 2938.84904 2822.9055221 2702.0764051 2575.6722552 2442.8256213 2302.4191883 
2152.9716998 1992.4466633 1817.90835 1624.842949 407.19481505 3315.0062695 3236.1792821 3155.4636889 3072.7096547 
2987.7467136 2900.3795687 2810.3827241 2717.4935251 2621.4029904 2521.7435133 2418.072016 2309.8463184 2196.3910457 
2076.8467896 1950.0912162 1814.6105052 1668.2765399 1507.9284987 1328.4962581 356.19519175 2863.9947247 2794.3863908 
2723.0885106 2649.9636209 2574.8548724 2497.5819859 2417.9360532 2335.6727546 2250.5033593 2162.0825519 2069.9915998 
1973.7144789 1872.6029798 1765.8238588 1652.2752583 1530.4472451 1398.1726372 1252.1395835 1086.8092427 310.33813011 
2469.6106341 2408.4083849 2345.7111478 2281.3944817 2215.3160293 2147.3117022 2077.1907538 2004.7293153 1929.661765 
1851.6689725 1770.3619084 1685.2581751 1595.7473141 1501.0375396 1400.0700756 1291.3731615 1172.7939091 1040.9535979 
889.96928781 269.2826926 2124.7347768 2071.1217881 2016.2011409 1959.8616166 1901.9756866 1842.3959799 1780.9507025 
1717.4375992 1651.6158502 1583.1949654 1511.8191939 1437.0450134 1358.3075314 1274.8682834 1185.730044 1089.488913 
984.0558722 866.07028074 729.44462718 232.61004477 1822.8050561 1775.9825534 1728.03141 1678.8535355 1628.3362012 
1576.3488251 1522.7387871 1467.3258932 1409.8949115 1350.1852917 1287.8766474 1222.5676482 1153.7442504 1080.7298365 
1002.6028133 918.05119849 825.08668795 720.43995353 597.98228314 199.83990346 1557.8030336 1517.0031612 1475.24591 
1432.4461147 1388.5056612 1343.3106088 1296.727433 1248.5980403 1198.7330217 1146.9023202 1092.8219881 1036.1348196 
976.3809957 912.95000126 845.00116529 771.32586406 690.07320021 598.1385087 489.50593038 170.43000865 1324.2289951 
1288.7160334 1252.4113512 1215.2426294 1177.1262883 1137.9649575 1097.6441666 1056.0279431 1012.9528368 968.21962733 
921.57935345 872.71657385 821.2233184 766.55630834 707.96478234 644.35967449 574.05262869 494.15962178 398.91757764 
143.74059439 1117.0847153 1086.1422424 1054.5718951 1022.314641 989.30189811 955.45266505 920.66971562 884.83703629 
847.81453907 809.43069826 769.47201693 727.66747358 683.66467032 636.99152498 586.99108777 532.70205575 472.61668512 
404.11478014 321.80347026 118.91107916 931.86906143 904.74033592 877.14306908 849.03070539 820.34860491 791.03215288 
761.00427689 730.17212797 698.42255282 665.61577048 631.57629619 596.07948572 558.83079659 519.43226752 477.32500958 
431.68262188 381.19189088 323.52802636 253.75270395 94.380259894 764.51520497 740.16952264 715.50148842 690.48271456 
665.07890875 639.24834748 612.93985522 586.09008456 558.61978309 530.42855079 501.387275 471.32685272 440.02070049 
407.1562715 372.28571375 334.73320922 293.40068111 246.28903651 188.95786428 65.835749755 611.89270128 588.74634225 
565.36090792 541.72555285 517.82579453 493.64222512 469.14870966 444.30982647 419.07716246 393.3838285 367.13611036 
340.20030712 312.3810353 283.38331406 252.74089296 219.66502179 182.66849908 138.3350106 54.538795143 472.63859147 
447.41334391 421.58893637 395.0398549 367.5945928 339.01232097 308.94244185 276.84861613 241.84944372 202.32572137 
154.65507918 38.37518941 7667.1256239 7750.9577253 7833.9767075 7916.20891 7997.6793364 8078.4117478 8158.4287461 
8237.7518517 8316.4015739 8394.3974755 8471.7582329 8548.5016903 8624.6449106 8700.2042221 8775.1952613 8847.3839467 
8919.1677854 8990.4603676 9061.2737755 9131.6196308 9201.5091184 9270.9530094 9339.9616816 9395.8578518 9451.5594719 
9507.0155383 9562.2306634 9617.2093286 9671.9558892 9726.4745788 9780.7695145 9812.5850859 9844.3950767 9876.1826426 
9907.9481775 9939.6920645 9971.4146764 10003.116376 10034.797515 10034.796035 8910.4722293 10125.898685 11151.415575 
11967.277471 
