# vtk DataFile Version 5.1
vtk output
ASCII
DATASET UNSTRUCTURED_GRID
POINTS 474 double
0 0 -3 -0.11344901018 0.17758382911 -3.1345113591 -0.25315847539 0.33878440002 -3.2648786912 
-0.38126193464 0.50363826191 -3.4024021726 -0.5126230829 0.66576812132 -3.5400907975 -0.65843420624 0.83063257984 -3.6586607204 
-0.82297351213 0.96639713451 -3.7890248355 -0.97532665543 1.1205572503 -3.9136168835 -1.1248934303 1.2712178784 -4.0456439831 
-1.260480867 1.4416481412 -4.1684021702 -1.3678821889 1.6074581306 -4.3216079256 -1.4660695894 1.784059061 -4.4688198332 
-1.5694943891 1.9404801104 -4.6341551474 -1.6843141616 2.0801145574 -4.8068358964 -1.7920938126 2.214324268 -4.9881403376 
-1.8953148049 2.3800598251 -5.1442721788 -1.9325266326 2.5204028889 -5.3477890193 -1.973129178 2.6634701459 -5.548744719 
-1.9865147688 2.7616205381 -5.7782819197 -2.0072616269 2.8605132642 -6.0069515429 -2.0326142165 2.9638917436 -6.2331597129 
-1.9920842053 3.0592208557 -6.4606892244 -1.9658829099 3.1812169213 -6.6773235986 -1.95489032 3.3115244098 -6.8903942944 
-1.9618163346 3.4463146723 -7.10083102 -1.9595558315 3.5807523934 -7.3115948434 -1.9591600912 3.7034011527 -7.5294414069 
-1.9922335507 3.8261433401 -7.744709848 -2.0235998482 3.9580476516 -7.9547512915 -2.053410198 4.0821397433 -8.16972221 
-2.0922570198 4.2101350542 -8.380928566 -2.0673262565 4.3390293584 -8.5936836256 -2.0611579752 4.4358891617 -8.8240748816 
-2.0457609566 4.5389463916 -9.0513239502 -2.0376118219 4.6474567449 -9.2763997037 -2.0620327306 4.7344755807 -9.5094905474 
-2.0678249667 4.7919692102 -9.7527207523 -2.0538188065 4.7894724803 -10.002315612 -2.061454029 4.7954964511 -10.25212637 
-2.0748719743 4.7792135014 -10.501234428 -2.0879807121 4.7450832286 -10.748546549 -2.1011430636 4.7103243177 -10.995768253 
-2.1002295418 4.7008537725 -11.245587136 -2.1048346881 4.6894878057 -11.495286169 -2.0641472069 4.6880886783 -11.741949039 
-2.0210511199 4.6768675797 -11.987950694 -1.9835084387 4.6483785121 -12.233468351 -1.9506827239 4.6230643942 -12.480007736 
-1.9004712217 4.6381689642 -12.724447211 -1.8375331244 4.6537107888 -12.96589544 -1.7745908329 4.6759472614 -13.206818265 
-1.7324654219 4.637703043 -13.450257845 -1.6671038275 4.5609504363 -13.679030438 -1.598399743 4.4811403079 -13.905768376 
-1.5362405788 4.3949975328 -14.132077148 -1.4802902991 4.3079524624 -14.359657292 -1.4132617365 4.2082396067 -14.578893508 
-1.3346237404 4.1025622853 -14.791374964 -1.2639046148 4.0215870271 -15.017077895 -1.1811068059 3.9440623254 -15.239865784 
-1.0986307142 3.8389919159 -15.45118995 -0.9637992344 3.7108445705 -15.618219079 -0.83607035007 3.5887696699 -15.795089231 
-0.67316557472 3.4694079904 -15.942448736 -0.49469270494 3.3540019539 -16.074087946 -0.32610371771 3.2396122859 -16.218976721 
-0.14820477506 3.1356714575 -16.360568636 0.012364935668 3.0233302117 -16.515800116 0.1549159304 2.9000749565 -16.680078405 
0.27000396814 2.7652117596 -16.856335778 0.3829086188 2.6314831379 -17.034855232 0.49747072388 2.4976228367 -17.212216287 
0.60083379182 2.4004242314 -17.418052405 0.66797056282 2.2936634265 -17.633910656 0.75017747883 2.1834571348 -17.842708636 
0.82913521304 2.0737203209 -18.053002496 0.84139766799 2.0604437881 -18.08156333 -0.5126230829 0.66576812132 -3.5400907975 
-0.52277406038 0.77956108233 -3.7624601292 -0.53449030145 0.89788545023 -3.982373916 -0.53515452505 1.0082199251 -4.2067081811 
-0.53644590475 1.1144897642 -4.4329935178 -0.53696454607 1.2507070137 -4.6426231721 -0.51878168185 1.3625180934 -4.8654856093 
-0.50273855675 1.4613674127 -5.0945520412 -0.49082816941 1.5488159746 -5.328455636 -0.53649707025 1.6336061495 -5.5591610277 
-0.58531137867 1.7180366746 -5.7893536638 -0.67092791921 1.7968155302 -6.0106310912 -0.74962718774 1.8695191762 -6.2365085027 
-0.83361798078 1.9305568324 -6.4639287111 -0.91700232593 1.9931029055 -6.6911621587 -0.9753928223 2.0369035191 -6.930268947 
-1.0475750197 2.0677300162 -7.1676282894 -1.1009443958 2.0963864931 -7.4101783173 -1.0913733021 2.1254249614 -7.6583015962 
-1.0949643175 2.1422303757 -7.9077102622 -1.0664266342 2.165504346 -8.1548653099 -1.1248934303 1.2712178784 -4.0456439831 
-1.3701105494 1.2938911888 -4.0025802454 -1.6157087444 1.3095406912 -3.9585732041 -1.8617989566 1.2971902892 -3.9162993943 
-2.1048102068 1.2871864009 -3.8584594899 -2.3536918581 1.2700404026 -3.8422133105 -2.6027259385 1.2509731012 -3.853097466 
-2.8484396668 1.2518422052 -3.8991844311 -3.0916583036 1.2465957369 -3.9567793032 -3.3338077351 1.2274596438 -4.0159186538 
-3.5641759617 1.2403219499 -4.1121737381 -3.7912733809 1.2235452575 -4.2153498243 -4.0204382622 1.2355273717 -4.3145460244 
-4.2478450942 1.2493184055 -4.4174826076 -4.4834828557 1.2739945955 -4.4972693924 -4.7217834282 1.3027450896 -4.567171082 
-4.9607669071 1.3311838138 -4.6348330046 -5.199558466 1.3700473821 -4.6978267701 -5.4302756926 1.4046385181 -4.7876767264 
-5.6506628044 1.4263130494 -4.9036928272 -5.8669179291 1.4821841882 -5.0156676629 -1.5694943891 1.9404801104 -4.6341551474 
-1.4895185985 2.1771164887 -4.6238063594 -1.381831314 2.3982210442 -4.5789039731 -1.2633369749 2.613011121 -4.5306928281 
-1.1462127147 2.8284302862 -4.4819435621 -1.0110186488 3.0229077887 -4.4019369025 -0.87475765502 3.2163027526 -4.3211202613 
-0.70885179817 3.3900448113 -4.2519180669 -0.54644443097 3.5633239055 -4.1738270778 -0.35505468441 3.7110359584 -4.1101787129 
-0.1483501848 3.8487343787 -4.0816761715 0.067808343634 3.9732436541 -4.0651555501 0.28749992486 4.0913120878 -4.0479667714 
0.50374755256 4.2143802933 -4.0236525716 0.73000447932 4.3146703998 -3.988301509 0.94938943915 4.4138568734 -3.9209792775 
1.1649049221 4.5245782177 -3.8593849555 1.3613181123 4.6701551205 -3.8071429788 1.5518888171 4.8233410947 -3.7550194358 
1.7445140987 4.9527028979 -3.6619548088 1.9520510821 5.0706612644 -3.5883375689 -1.9325266326 2.5204028889 -5.3477890193 
-2.0959306286 2.7087500879 -5.365801979 -2.2633102792 2.8933902522 -5.385602541 -2.4178782198 3.0885612485 -5.4083409222 
-2.5479432722 3.3001525355 -5.43684021 -2.6787178666 3.5102060499 -5.4725547247 -2.8107433098 3.7194501556 -5.5084181681 
-2.9413858908 3.9308341965 -5.5357915725 -3.0679742596 4.1429310387 -5.574396163 -3.2382620752 4.3194711085 -5.6227248669 
-3.4034421657 4.4981947511 -5.679938478 -3.5627383883 4.6713598955 -5.7644283958 -3.7260812147 4.8202216789 -5.8813013633 
-3.8851823596 4.9781299918 -5.9919891692 -4.0318882388 5.1192579924 -6.1371107474 -4.1776034972 5.267674107 -6.2758180666 
-4.3006385034 5.4063912843 -6.4435080543 -4.3993083167 5.5617470301 -6.612708705 -4.4888422999 5.7516090069 -6.7484882896 
-4.5691850661 5.9608949852 -6.8591427934 -4.6250139927 6.1476728782 -7.0152628647 -2.0326142165 2.9638917436 -6.2331597129 
-1.8379661322 2.9856981232 -6.3885193121 -1.6391598511 3.01010672 -6.5381197233 -1.4501474801 3.0433683747 -6.6983320385 
-1.259729815 3.1333976635 -6.8330014113 -1.0836211307 3.1947706356 -6.9994919203 -0.90834424086 3.2595978692 -7.1655504693 
-0.7571583047 3.3005064676 -7.3604075946 -0.60996519126 3.3440873206 -7.5577268704 -0.49002972453 3.3894289805 -7.7723419158 
-0.36913794691 3.4240836293 -7.988407261 -0.25986560906 3.4360709529 -8.212942025 -0.15574965957 3.4430170546 -8.4401239362 
-0.037148734201 3.3980559853 -8.65555913 0.11474077309 3.3523152081 -8.8487879034 0.25761539666 3.307527632 -9.0489900887 
0.37134473956 3.3170620605 -9.2714192487 0.45184428968 3.4066055838 -9.4905123337 0.52755006512 3.4859579188 -9.7151717258 
0.61963079677 3.5558990082 -9.9368232155 0.71155600796 3.6256716727 -10.158220968 -1.9618163346 3.4463146723 -7.10083102 
-2.0309726592 3.3358535308 -7.3141751996 -2.104616748 3.2322445112 -7.5294464686 -2.190188981 3.1546980797 -7.751175907 
-2.2976904794 3.0825969981 -7.9650563921 -2.3991063146 3.0081621014 -8.1810986901 -2.5152911443 2.932724715 -8.3892099249 
-2.6353777226 2.9151416721 -8.607773532 -2.7375207027 2.9036163259 -8.8356638083 -2.8064497636 2.8770738805 -9.0745032588 
-2.8451554793 2.8922226211 -9.3210238122 -2.8645235536 2.9469414014 -9.5641919285 -2.8916055665 2.9711691852 -9.8115369892 
-2.9352780296 2.950425028 -10.056817229 -2.9962578971 2.9862888521 -10.296598883 -3.0614373976 3.0026472426 -10.537397629 
-3.1480640416 3.0173237865 -10.77144981 -3.2331271899 3.0370317538 -11.005705774 -3.288509663 3.025893663 -11.249239601 
-3.320897827 3.0297427036 -11.497102853 -3.3208786737 3.0038642036 -11.745309351 -2.0235998482 3.9580476516 -7.9547512915 
-1.8641792939 4.1284428016 -8.0444763141 -1.703088157 4.2983186837 -8.1321793946 -1.5312487767 4.4435719007 -8.2411414537 
-1.3581433132 4.5892239683 -8.3475368188 -1.1862146091 4.7158958043 -8.4775166889 -1.0186464144 4.8089534404 -8.6380195752 
-0.86800983641 4.8930373924 -8.8189574385 -0.72884017182 4.9763139347 -9.0092120626 -0.59088419752 5.0655988889 -9.1976168027 
-0.45467165021 5.1541236562 -9.3876418208 -0.32760832179 5.2513809607 -9.5797249468 -0.20178605879 5.3528466093 -9.770443274 
-0.086646172337 5.4573309696 -9.9662131005 0.03316044533 5.5673355231 -10.15606929 0.1539268129 5.6761187869 -10.346021089 
0.26904779452 5.7614038547 -10.550895726 0.38126424888 5.8387279751 -10.76048687 0.52095386486 5.9122322598 -10.954352626 
0.65941290954 5.9812120167 -11.150747346 0.83217367741 6.082715558 -11.299200735 -2.0611579752 4.4358891617 -8.8240748816 
-2.2749039929 4.4474172946 -8.9532249573 -2.4981042812 4.4241463158 -9.0634070468 -2.7250734602 4.4038012478 -9.1662227557 
-2.9418091811 4.3703748547 -9.2862573487 -3.1667417949 4.3351481088 -9.3895259095 -3.3871943636 4.2952164277 -9.5004588882 
-3.6033343095 4.2456788972 -9.6159125883 -3.8152564157 4.1965541869 -9.7391026194 -4.0309626123 4.1245192607 -9.8429380958 
-4.2473437712 4.0832631956 -9.9611630135 -4.4655861722 4.0789046166 -10.083028748 -4.6819146229 4.0739012266 -10.208236445 
-4.9124821926 4.0776730423 -10.304799219 -5.1348570088 4.0688567566 -10.418692652 -5.3596202142 4.1049321565 -10.522037062 
[...]
CELL_DATA 451
SCALARS solution%20variable double
LOOKUP_TABLE default
7589.0068466 7347.3240687 7098.8630618 6841.4607591 6635.3456768 6421.5940974 6200.5563328 5971.4213227 5788.9804113 
5599.6894707 5403.8533472 5200.7306798 5039.8161814 4872.7901974 4699.9174945 4520.5253231 4379.0286109 4232.1047976 
4079.983583 3922.0582441 3797.9441029 3669.0290726 3535.5123606 3396.8494473 3288.1832622 3175.2822948 3058.3193806 
2936.8074324 2841.7738399 2743.0112878 2640.669927 2534.3146562 2451.22781 2364.8587138 2275.3381328 2182.2770603 
2109.5837317 2033.9978758 1955.6338455 1874.1425604 1810.4200164 1744.1404365 1675.4044863 1603.8966625 1547.8480381 
1489.5268315 1429.022579 1366.0468448 1316.4978378 1264.9133248 1211.3741742 1155.6122743 1111.5141862 1065.5747546 
1017.8685553 968.14060896 928.59120658 887.35316385 844.49299493 799.75588512 764.06882474 726.81167022 688.04411711 
647.50193095 615.49372941 582.0490938 547.21790163 510.717037 483.8368188 455.8960084 426.96593897 396.8246517 
365.16277356 331.5305191 295.23493736 27.312292999 6709.8349841 6575.1868797 6437.7747646 6297.4170942 6153.9116817 
6007.032257 5856.5242507 5702.0995786 5543.4301224 5380.1394819 5211.7924054 5037.881045 4857.8067866 4670.8557786 
4476.1652609 4272.6760797 4059.063755 3833.63492 3594.165155 666.54462665 5851.6605891 5729.0340132 5603.779402 
5475.7157409 5344.6403987 5210.3253336 5072.5123988 4930.9074693 4785.1730083 4634.9185337 4479.6882121 4318.9444432 
4152.0457298 3978.216194 3796.5025286 3605.7114083 3404.315283 3190.3045213 2960.9430411 593.57446802 5092.5342093 
4981.6547148 4868.3089553 4752.3197324 4633.4877488 4511.587549 4386.3624495 4257.5181293 4124.7144242 3987.5546667 
3845.5716091 3698.2084891 3544.7930172 3384.5007534 3216.3020511 3038.8825427 2850.5189938 2648.8754607 2430.6465647 
526.07434949 4423.425239 4323.8440328 4221.9775899 4117.6555086 4010.6853161 3900.8482503 3787.8939463 3671.5336555 
3551.4314727 3427.192801 3298.3489163 3164.3358816 3024.4650617 2877.8807425 2723.4972114 2559.9016385 2385.1968615 
2196.7312098 1990.5967986 464.14149301 3835.4477098 3746.5693907 3655.5990734 3562.3756237 3466.7163435 3368.4127074 
3267.2249499 3162.8751007 3055.0378867 2943.3286423 2827.2869325 2706.3538664 2579.8398507 2446.8773441 2306.3490838 
2156.7741584 1996.1170288 1821.4442492 1628.2474586 407.75174539 3320.0182345 3241.1368125 3160.3620995 3077.5440776 
2992.5120837 2905.0706077 2814.9939229 2722.0191242 2625.8369594 2526.0795289 2422.3034412 2313.9661864 2200.3920552 
2080.7213274 1953.8314402 1818.2085617 1671.7250956 1511.2220646 1331.6347649 356.7615036 2868.980034 2799.3181595 
2727.9614095 2654.7720952 2579.5931225 2502.2439443 2422.5153585 2340.1627219 2254.8969454 2166.3723155 2074.1696581 
1977.7724591 1876.5319723 1769.6143805 1655.9172529 1533.930186 1401.4859105 1255.2736712 1089.7594982 310.92357783 
2474.6854868 2413.431138 2350.6756564 2286.2943237 2220.1444797 2152.0617031 2081.8548788 2009.2997277 1934.130168 
1856.0265492 1774.599251 1689.3652003 1599.7131642 1504.8504738 1403.7173636 1294.8410299 1176.0676922 1044.0186143 
892.81449714 269.90114572 2130.0395031 2076.37666 2021.3989346 1964.994763 1907.0362386 1847.375574 1785.8405117 
1722.2282774 1656.2974641 1587.7569108 1516.2500923 1441.3325835 1362.4384279 1278.8278975 1189.502262 1093.0558518 
987.39769668 869.16579856 732.27425208 233.2803882 1828.5102157 1781.6417319 1733.6359145 1684.3942335 1633.803479 
1581.7325378 1528.0281986 1472.5096028 1414.9607634 1355.1202622 1292.6667015 1227.1975563 1158.1973496 1084.9877172 
1006.6449029 921.85422051 828.62432719 723.68223916 600.89755612 200.58813061 1564.1156044 1523.2769812 1481.4702396 
1438.6096323 1394.5964094 1349.3159292 1302.6338878 1254.3913151 1204.3978049 1152.4221508 1098.179059 1041.3097204 
981.35236947 917.69442147 849.49222354 775.53328504 693.96160654 601.66590241 492.62358383 171.2909185 1331.3975061 
1295.8601255 1259.5174044 1222.2962152 1184.1120965 1144.8667089 1104.4445073 1062.7083136 1019.4933081 974.59869215 
927.77409841 878.7019572 826.97170545 772.03682397 713.14238109 649.19376055 578.49494955 498.15107838 402.38467436 
144.76204299 1125.4000581 1094.4629482 1062.8802907 1030.591837 997.52768193 963.60591263 928.72777275 892.77554435 
855.60721809 817.04907126 776.88505168 734.84110524 690.56114721 643.56848226 593.20018559 538.48688666 477.90939456 
408.83035698 325.8305947 120.16181234 941.65822969 914.60626882 887.06371726 858.98206462 830.30454146 800.96420259 
770.88141044 739.96047151 708.08504837 675.11175309 640.860953 605.1031423 567.53794236 527.76017109 485.20165917 
439.02349029 387.89451045 329.46217303 258.74175377 95.974624057 776.10537979 752.01778494 727.58271535 702.76812114 
677.53562974 651.83896499 625.62186067 598.81525895 571.33347256 543.06880331 513.8837854 483.59963217 451.97833125 
418.69350584 383.27997566 345.03913787 302.84089541 254.63692211 195.90277471 67.915668577 625.2442508 602.60993556 
579.71340566 556.53799807 533.06236089 509.25895102 485.09197142 460.51449022 435.4643355 409.85810062 383.58212471 
356.47840903 328.32156973 298.77877259 267.33426813 233.13058577 194.57489926 148.05735753 58.090253799 486.26624264 
461.05306277 435.16909841 408.4775891 380.79378557 351.86105975 321.30960435 288.57910427 252.75727458 212.18450042 
163.19576348 39.999932652 7673.8750552 7757.7414116 7840.7919331 7923.0530191 8004.5497311 8085.3058853 8165.3441377 
8244.6860604 8323.3522129 8401.3622068 8478.7347658 8555.4877799 8631.6383568 8707.2028682 8782.1969932 8854.3880699 
8926.1721456 8997.4629232 9068.2725239 9138.6126078 9208.4943977 9277.9287015 9346.9259331 9402.8178891 9458.5131921 
9513.9609227 9569.1657273 9624.1321208 9678.8644916 9733.3671065 9787.644115 9819.4551777 9851.2585205 9883.0373387 
9914.7920486 9946.5230564 9978.2307581 10009.91554 10041.577778 10041.576394 8917.3912797 10132.311312 11157.380595 
11972.833106 
