# vtk DataFile Version 5.1
vtk output
ASCII
DATASET UNSTRUCTURED_GRID
POINTS 474 double
0 0 -3 -0.11344901018 0.17758382911 -3.1345113591 -0.25315847539 0.33878440002 -3.2648786912 
-0.38126193464 0.50363826191 -3.4024021726 -0.5126230829 0.66576812132 -3.5400907975 -0.65843420624 0.83063257984 -3.6586607204 
-0.82297351213 0.96639713451 -3.7890248355 -0.97532665543 1.1205572503 -3.9136168835 -1.1248934303 1.2712178784 -4.0456439831 
-1.260480867 1.4416481412 -4.1684021702 -1.3678821889 1.6074581306 -4.3216079256 -1.4660695894 1.784059061 -4.4688198332 
-1.5694943891 1.9404801104 -4.6341551474 -1.6843141616 2.0801145574 -4.8068358964 -1.7920938126 2.214324268 -4.9881403376 
-1.8953148049 2.3800598251 -5.1442721788 -1.9325266326 2.5204028889 -5.3477890193 -1.973129178 2.6634701459 -5.548744719 
-1.9865147688 2.7616205381 -5.7782819197 -2.0072616269 2.8605132642 -6.0069515429 -2.0326142165 2.9638917436 -6.2331597129 
-1.9920842053 3.0592208557 -6.4606892244 -1.9658829099 3.1812169213 -6.6773235986 -1.95489032 3.3115244098 -6.8903942944 
-1.9618163346 3.4463146723 -7.10083102 -1.9595558315 3.5807523934 -7.3115948434 -1.9591600912 3.7034011527 -7.5294414069 
-1.9922335507 3.8261433401 -7.744709848 -2.0235998482 3.9580476516 -7.9547512915 -2.053410198 4.0821397433 -8.16972221 
-2.0922570198 4.2101350542 -8.380928566 -2.0673262565 4.3390293584 -8.5936836256 -2.0611579752 4.4358891617 -8.8240748816 
-2.0457609566 4.5389463916 -9.0513239502 -2.0376118219 4.6474567449 -9.2763997037 -2.0620327306 4.7344755807 -9.5094905474 
-2.0678249667 4.7919692102 -9.7527207523 -2.0538188065 4.7894724803 -10.002315612 -2.061454029 4.7954964511 -10.25212637 
-2.0748719743 4.7792135014 -10.501234428 -2.0879807121 4.7450832286 -10.748546549 -2.1011430636 4.7103243177 -10.995768253 
-2.1002295418 4.7008537725 -11.245587136 -2.1048346881 4.6894878057 -11.495286169 -2.0641472069 4.6880886783 -11.741949039 
-2.0210511199 4.6768675797 -11.987950694 -1.9835084387 4.6483785121 -12.233468351 -1.9506827239 4.6230643942 -12.480007736 
-1.9004712217 4.6381689642 -12.724447211 -1.8375331244 4.6537107888 -12.96589544 -1.7745908329 4.6759472614 -13.206818265 
-1.7324654219 4.637703043 -13.450257845 -1.6671038275 4.5609504363 -13.679030438 -1.598399743 4.4811403079 -13.905768376 
-1.5362405788 4.3949975328 -14.132077148 -1.4802902991 4.3079524624 -14.359657292 -1.4132617365 4.2082396067 -14.578893508 
-1.3346237404 4.1025622853 -14.791374964 -1.2639046148 4.0215870271 -15.017077895 -1.1811068059 3.9440623254 -15.239865784 
-1.0986307142 3.8389919159 -15.45118995 -0.9637992344 3.7108445705 -15.618219079 -0.83607035007 3.5887696699 -15.795089231 
-0.67316557472 3.4694079904 -15.942448736 -0.49469270494 3.3540019539 -16.074087946 -0.32610371771 3.2396122859 -16.218976721 
-0.14820477506 3.1356714575 -16.360568636 0.012364935668 3.0233302117 -16.515800116 0.1549159304 2.9000749565 -16.680078405 
0.27000396814 2.7652117596 -16.856335778 0.3829086188 2.6314831379 -17.034855232 0.49747072388 2.4976228367 -17.212216287 
0.60083379182 2.4004242314 -17.418052405 0.66797056282 2.2936634265 -17.633910656 0.75017747883 2.1834571348 -17.842708636 
0.82913521304 2.0737203209 -18.053002496 0.84139766799 2.0604437881 -18.08156333 -0.5126230829 0.66576812132 -3.5400907975 
-0.52277406038 0.77956108233 -3.7624601292 -0.53449030145 0.89788545023 -3.982373916 -0.53515452505 1.0082199251 -4.2067081811 
-0.53644590475 1.1144897642 -4.4329935178 -0.53696454607 1.2507070137 -4.6426231721 -0.51878168185 1.3625180934 -4.8654856093 
-0.50273855675 1.4613674127 -5.0945520412 -0.49082816941 1.5488159746 -5.328455636 -0.53649707025 1.6336061495 -5.5591610277 
-0.58531137867 1.7180366746 -5.7893536638 -0.67092791921 1.7968155302 -6.0106310912 -0.74962718774 1.8695191762 -6.2365085027 
-0.83361798078 1.9305568324 -6.4639287111 -0.91700232593 1.9931029055 -6.6911621587 -0.9753928223 2.0369035191 -6.930268947 
-1.0475750197 2.0677300162 -7.1676282894 -1.1009443958 2.0963864931 -7.4101783173 -1.0913733021 2.1254249614 -7.6583015962 
-1.0949643175 2.1422303757 -7.9077102622 -1.0664266342 2.165504346 -8.1548653099 -1.1248934303 1.2712178784 -4.0456439831 
-1.3701105494 1.2938911888 -4.0025802454 -1.6157087444 1.3095406912 -3.9585732041 -1.8617989566 1.2971902892 -3.9162993943 
-2.1048102068 1.2871864009 -3.8584594899 -2.3536918581 1.2700404026 -3.8422133105 -2.6027259385 1.2509731012 -3.853097466 
-2.8484396668 1.2518422052 -3.8991844311 -3.0916583036 1.2465957369 -3.9567793032 -3.3338077351 1.2274596438 -4.0159186538 
-3.5641759617 1.2403219499 -4.1121737381 -3.7912733809 1.2235452575 -4.2153498243 -4.0204382622 1.2355273717 -4.3145460244 
-4.2478450942 1.2493184055 -4.4174826076 -4.4834828557 1.2739945955 -4.4972693924 -4.7217834282 1.3027450896 -4.567171082 
-4.9607669071 1.3311838138 -4.6348330046 -5.199558466 1.3700473821 -4.6978267701 -5.4302756926 1.4046385181 -4.7876767264 
-5.6506628044 1.4263130494 -4.9036928272 -5.8669179291 1.4821841882 -5.0156676629 -1.5694943891 1.9404801104 -4.6341551474 
-1.4895185985 2.1771164887 -4.6238063594 -1.381831314 2.3982210442 -4.5789039731 -1.2633369749 2.613011121 -4.5306928281 
-1.1462127147 2.8284302862 -4.4819435621 -1.0110186488 3.0229077887 -4.4019369025 -0.87475765502 3.2163027526 -4.3211202613 
-0.70885179817 3.3900448113 -4.2519180669 -0.54644443097 3.5633239055 -4.1738270778 -0.35505468441 3.7110359584 -4.1101787129 
-0.1483501848 3.8487343787 -4.0816761715 0.067808343634 3.9732436541 -4.0651555501 0.28749992486 4.0913120878 -4.0479667714 
0.50374755256 4.2143802933 -4.0236525716 0.73000447932 4.3146703998 -3.988301509 0.94938943915 4.4138568734 -3.9209792775 
1.1649049221 4.5245782177 -3.8593849555 1.3613181123 4.6701551205 -3.8071429788 1.5518888171 4.8233410947 -3.7550194358 
1.7445140987 4.9527028979 -3.6619548088 1.9520510821 5.0706612644 -3.5883375689 -1.9325266326 2.5204028889 -5.3477890193 
-2.0959306286 2.7087500879 -5.365801979 -2.2633102792 2.8933902522 -5.385602541 -2.4178782198 3.0885612485 -5.4083409222 
-2.5479432722 3.3001525355 -5.43684021 -2.6787178666 3.5102060499 -5.4725547247 -2.8107433098 3.7194501556 -5.5084181681 
-2.9413858908 3.9308341965 -5.5357915725 -3.0679742596 4.1429310387 -5.574396163 -3.2382620752 4.3194711085 -5.6227248669 
-3.4034421657 4.4981947511 -5.679938478 -3.5627383883 4.6713598955 -5.7644283958 -3.7260812147 4.8202216789 -5.8813013633 
-3.8851823596 4.9781299918 -5.9919891692 -4.0318882388 5.1192579924 -6.1371107474 -4.1776034972 5.267674107 -6.2758180666 
-4.3006385034 5.4063912843 -6.4435080543 -4.3993083167 5.5617470301 -6.612708705 -4.4888422999 5.7516090069 -6.7484882896 
-4.5691850661 5.9608949852 -6.8591427934 -4.6250139927 6.1476728782 -7.0152628647 -2.0326142165 2.9638917436 -6.2331597129 
-1.8379661322 2.9856981232 -6.3885193121 -1.6391598511 3.01010672 -6.5381197233 -1.4501474801 3.0433683747 -6.6983320385 
-1.259729815 3.1333976635 -6.8330014113 -1.0836211307 3.1947706356 -6.9994919203 -0.90834424086 3.2595978692 -7.1655504693 
-0.7571583047 3.3005064676 -7.3604075946 -0.60996519126 3.3440873206 -7.5577268704 -0.49002972453 3.3894289805 -7.7723419158 
-0.36913794691 3.4240836293 -7.988407261 -0.25986560906 3.4360709529 -8.212942025 -0.15574965957 3.4430170546 -8.4401239362 
-0.037148734201 3.3980559853 -8.65555913 0.11474077309 3.3523152081 -8.8487879034 0.25761539666 3.307527632 -9.0489900887 
0.37134473956 3.3170620605 -9.2714192487 0.45184428968 3.4066055838 -9.4905123337 0.52755006512 3.4859579188 -9.7151717258 
0.61963079677 3.5558990082 -9.9368232155 0.71155600796 3.6256716727 -10.158220968 -1.9618163346 3.4463146723 -7.10083102 
-2.0309726592 3.3358535308 -7.3141751996 -2.104616748 3.2322445112 -7.5294464686 -2.190188981 3.1546980797 -7.751175907 
-2.2976904794 3.0825969981 -7.9650563921 -2.3991063146 3.0081621014 -8.1810986901 -2.5152911443 2.932724715 -8.3892099249 
-2.6353777226 2.9151416721 -8.607773532 -2.7375207027 2.9036163259 -8.8356638083 -2.8064497636 2.8770738805 -9.0745032588 
-2.8451554793 2.8922226211 -9.3210238122 -2.8645235536 2.9469414014 -9.5641919285 -2.8916055665 2.9711691852 -9.8115369892 
-2.9352780296 2.950425028 -10.056817229 -2.9962578971 2.9862888521 -10.296598883 -3.0614373976 3.0026472426 -10.537397629 
-3.1480640416 3.0173237865 -10.77144981 -3.2331271899 3.0370317538 -11.005705774 -3.288509663 3.025893663 -11.249239601 
-3.320897827 3.0297427036 -11.497102853 -3.3208786737 3.0038642036 -11.745309351 -2.0235998482 3.9580476516 -7.9547512915 
-1.8641792939 4.1284428016 -8.0444763141 -1.703088157 4.2983186837 -8.1321793946 -1.5312487767 4.4435719007 -8.2411414537 
-1.3581433132 4.5892239683 -8.3475368188 -1.1862146091 4.7158958043 -8.4775166889 -1.0186464144 4.8089534404 -8.6380195752 
-0.86800983641 4.8930373924 -8.8189574385 -0.72884017182 4.9763139347 -9.0092120626 -0.59088419752 5.0655988889 -9.1976168027 
-0.45467165021 5.1541236562 -9.3876418208 -0.32760832179 5.2513809607 -9.5797249468 -0.20178605879 5.3528466093 -9.770443274 
-0.086646172337 5.4573309696 -9.9662131005 0.03316044533 5.5673355231 -10.15606929 0.1539268129 5.6761187869 -10.346021089 
0.26904779452 5.7614038547 -10.550895726 0.38126424888 5.8387279751 -10.76048687 0.52095386486 5.9122322598 -10.954352626 
0.65941290954 5.9812120167 -11.150747346 0.83217367741 6.082715558 -11.299200735 -2.0611579752 4.4358891617 -8.8240748816 
-2.2749039929 4.4474172946 -8.9532249573 -2.4981042812 4.4241463158 -9.0634070468 -2.7250734602 4.4038012478 -9.1662227557 
-2.9418091811 4.3703748547 -9.2862573487 -3.1667417949 4.3351481088 -9.3895259095 -3.3871943636 4.2952164277 -9.5004588882 
-3.6033343095 4.2456788972 -9.6159125883 -3.8152564157 4.1965541869 -9.7391026194 -4.0309626123 4.1245192607 -9.8429380958 
-4.2473437712 4.0832631956 -9.9611630135 -4.4655861722 4.0789046166 -10.083028748 -4.6819146229 4.0739012266 -10.208236445 
-4.9124821926 4.0776730423 -10.304799219 -5.1348570088 4.0688567566 -10.418692652 -5.3596202142 4.1049321565 -10.522037062 
[...]
CELL_DATA 451
SCALARS solution%20variable double
LOOKUP_TABLE default
7590.3329251 7348.6292909 7100.1468956 6842.7227141 6636.58938 6422.8190337 6201.7620082 5972.6072892 5790.1505208 
5600.8432768 5404.990419 5201.8506441 5040.9230674 4873.8836606 4700.997199 4521.5910092 4380.0844434 4233.1505722 
4081.019097 3923.0833975 3798.9631654 3670.0420264 3536.5191815 3397.8502505 3289.182407 3176.2800058 3059.3158672 
2937.8030919 2842.7731201 2744.0147242 2641.6780293 2535.3281864 2452.2513056 2365.8931051 2276.3843105 2183.3362515 
2110.660547 2035.0937412 1956.7501286 1875.281075 1811.5853581 1745.3346435 1676.6295122 1605.1550505 1549.1441256 
1490.8633938 1430.4022696 1367.4730916 1317.9741259 1266.4432723 1212.9612228 1157.260877 1113.2256211 1067.3534879 
1019.7187924 970.06785821 930.59111153 889.43081582 846.65312899 802.00490291 766.38712569 729.20324818 690.51240494 
650.05219349 618.08271966 584.67557158 549.87952254 513.41255593 486.55665541 458.6329723 429.71056585 399.56704016 
367.89299324 334.23954223 297.91687378 27.452960866 6711.0876792 6576.4298537 6439.0075321 6298.6391648 6155.1225616 
6008.2314503 5857.7112619 5703.273916 5544.5913022 5381.2870344 5212.9258833 5039.0000356 4858.9109287 4671.9447867 
4477.2389618 4273.734467 4060.1070739 3834.6638043 3595.1808561 666.65607776 5852.8368543 5730.2000411 5604.9346315 
5476.8596009 5345.7723087 5211.4447049 5073.6186361 4931.9999728 4786.2511776 4635.9817727 4480.7359368 4319.9760928 
4153.0607834 3979.2141958 3797.4831275 3606.6744198 3405.2607913 3191.233054 2961.8558842 593.68501116 5093.6441955 
4982.7541091 4869.3971164 4753.3960035 4634.5514572 4512.6380064 4387.3989524 4258.5399606 4125.7208552 3988.5449607 
3846.5450271 3699.1642997 3545.7305107 3385.4192664 3217.2010057 3039.7615129 2851.3778211 2649.714467 2431.466967 
526.18414294 4424.4808333 4324.8888398 4223.0108833 4118.6765403 4011.6933148 3901.8424211 3788.8734699 3672.4976882 
3552.3791465 3428.1232254 3299.2611812 3165.2290639 3025.3382365 2878.7330033 2724.3277057 2560.7096336 2385.9818674 
2197.4932227 1991.3368244 464.25098883 3836.4628064 3747.5736477 3656.5916718 3563.3557157 3467.6830505 3369.3651186 
3268.1621199 3163.7960479 3055.9415911 2944.2140449 2828.1529348 2707.1993326 2580.6636139 2447.6782196 2307.1258976 
2157.5258054 1996.8425923 1822.1432645 1628.9205374 407.86178344 3321.0091463 3242.116952 3161.3305418 3078.4998616 
2993.4542093 2905.9980331 2815.9055605 2722.9138373 2626.7135577 2526.9367644 2423.1400044 2314.7807025 2201.1830837 
2081.4873667 1954.5709437 1818.9199813 1672.4069867 1511.8733481 1332.2554336 356.8734203 2869.966084 2800.2936032 
2728.9251942 2655.723124 2580.53025 2503.1659723 2423.4210312 2341.0507194 2255.7658771 2167.2207127 2074.9959646 
1978.5750227 1877.3090347 1770.3640705 1656.6375867 1534.6190878 1402.1412884 1255.8936516 1090.3431724 311.03931337 
2475.6898229 2414.4251375 2351.658105 2287.2639524 2221.0999599 2153.0016404 2082.7778065 2010.204098 1935.0143423 
1856.8887866 1775.437694 1690.177858 1600.4978934 1505.6049571 1404.4390889 1295.5272798 1176.7155749 1044.6252374 
893.37769227 270.02345937 2131.0901144 2077.417358 2022.4282906 1966.0112804 1908.0383464 1848.3616189 1786.8087493 
1723.1768609 1657.2244309 1588.6601661 1517.1273885 1442.181495 1363.2563194 1279.6118845 1190.2491633 1093.7621381 
988.05945469 869.77885065 732.83474535 233.41303725 1829.6411482 1782.7634919 1734.7467811 1685.4923991 1634.8870414 
1582.7994901 1529.0764175 1473.536834 1415.9646039 1356.0981377 1293.6158384 1228.1149452 1159.0796987 1085.8313895 
1007.4458355 922.60781716 829.32539358 724.32486347 601.47550414 200.73629023 1565.368153 1524.5217469 1482.7050928 
1439.8323293 1395.8045813 1350.5070694 1303.8053365 1255.54024 1205.5211776 1153.5167163 1099.2412972 1042.3357953 
982.3380612 918.63510221 850.38267744 776.36753403 694.73266766 602.36549138 493.24210402 171.46147242 1332.8211743 
1297.278786 1260.9283511 1223.6965834 1185.4988489 1146.2366184 1105.7941362 1064.0339875 1020.791084 975.86431692 
929.00304281 879.88927332 828.11193507 773.12387078 714.16932736 650.15259537 579.37615471 498.94300384 403.07285466 
144.96442648 1127.0524582 1096.1160619 1064.5305949 1032.2355721 999.16083103 965.22428293 930.32687391 894.35055452 
857.1529414 818.55988378 778.354831 736.2631366 691.9279948 644.87180692 594.43047694 539.63305193 478.95809561 
409.76489419 326.62913523 120.40923815 943.60335245 916.56557931 889.0327811 860.95607261 832.27827692 802.93200361 
772.83712556 741.89740664 709.99590191 676.98853476 642.69487946 606.88449899 569.25589415 529.40249287 486.75433466 
440.47008217 389.21510566 330.63148138 259.72553058 96.287936242 778.40651409 754.36730664 729.97542228 705.1981093 
679.99621794 654.32260983 628.12005971 601.31843898 573.83085855 545.54826139 516.33162972 486.00037939 454.31437584 
420.94466988 385.42284892 347.04604454 304.67814464 256.2615616 197.25613038 68.318346276 627.8952004 605.35905919 
582.55550784 559.46668076 536.06982726 512.33577364 488.22681746 463.69379418 438.67190645 413.07464536 386.78465891 
359.63951043 331.40839392 301.75168078 270.14475734 235.7178119 196.858919 149.92302858 58.765828344 488.97196721 
463.75767362 437.85829569 411.13499322 383.40058203 354.39554117 323.74655553 290.88894056 254.90480263 214.12728005 
164.88426966 40.316545768 7675.2084454 7759.0815656 7842.1383151 7924.4051049 8005.9070078 8086.6678513 8166.7103016 
8246.0559413 8324.7253396 8402.7381179 8480.113009 8556.8679122 8633.0199438 8708.5854843 8783.5802209 8855.7717721 
8927.555897 8998.8463207 9069.6551722 9139.9941191 9209.8743915 9279.3068048 9348.3017801 9404.1929059 9459.8869635 
9515.3330501 9570.5358189 9625.4997913 9680.2293623 9734.7288051 9789.0022758 9820.8124492 9852.6144804 9884.3915724 
9916.1441459 9947.8726117 9979.5773705 10011.258813 10042.917321 10042.915955 8918.7581896 10133.578276 11158.559202 
11973.930888 
