# vtk DataFile Version 5.1
vtk output
ASCII
DATASET UNSTRUCTURED_GRID
POINTS 474 double
0 0 -3 -0.11344901018 0.17758382911 -3.1345113591 -0.25315847539 0.33878440002 -3.2648786912 
-0.38126193464 0.50363826191 -3.4024021726 -0.5126230829 0.66576812132 -3.5400907975 -0.65843420624 0.83063257984 -3.6586607204 
-0.82297351213 0.96639713451 -3.7890248355 -0.97532665543 1.1205572503 -3.9136168835 -1.1248934303 1.2712178784 -4.0456439831 
-1.260480867 1.4416481412 -4.1684021702 -1.3678821889 1.6074581306 -4.3216079256 -1.4660695894 1.784059061 -4.4688198332 
-1.5694943891 1.9404801104 -4.6341551474 -1.6843141616 2.0801145574 -4.8068358964 -1.7920938126 2.214324268 -4.9881403376 
-1.8953148049 2.3800598251 -5.1442721788 -1.9325266326 2.5204028889 -5.3477890193 -1.973129178 2.6634701459 -5.548744719 
-1.9865147688 2.7616205381 -5.7782819197 -2.0072616269 2.8605132642 -6.0069515429 -2.0326142165 2.9638917436 -6.2331597129 
-1.9920842053 3.0592208557 -6.4606892244 -1.9658829099 3.1812169213 -6.6773235986 -1.95489032 3.3115244098 -6.8903942944 
-1.9618163346 3.4463146723 -7.10083102 -1.9595558315 3.5807523934 -7.3115948434 -1.9591600912 3.7034011527 -7.5294414069 
-1.9922335507 3.8261433401 -7.744709848 -2.0235998482 3.9580476516 -7.9547512915 -2.053410198 4.0821397433 -8.16972221 
-2.0922570198 4.2101350542 -8.380928566 -2.0673262565 4.3390293584 -8.5936836256 -2.0611579752 4.4358891617 -8.8240748816 
-2.0457609566 4.5389463916 -9.0513239502 -2.0376118219 4.6474567449 -9.2763997037 -2.0620327306 4.7344755807 -9.5094905474 
-2.0678249667 4.7919692102 -9.7527207523 -2.0538188065 4.7894724803 -10.002315612 -2.061454029 4.7954964511 -10.25212637 
-2.0748719743 4.7792135014 -10.501234428 -2.0879807121 4.7450832286 -10.748546549 -2.1011430636 4.7103243177 -10.995768253 
-2.1002295418 4.7008537725 -11.245587136 -2.1048346881 4.6894878057 -11.495286169 -2.0641472069 4.6880886783 -11.741949039 
-2.0210511199 4.6768675797 -11.987950694 -1.9835084387 4.6483785121 -12.233468351 -1.9506827239 4.6230643942 -12.480007736 
-1.9004712217 4.6381689642 -12.724447211 -1.8375331244 4.6537107888 -12.96589544 -1.7745908329 4.6759472614 -13.206818265 
-1.7324654219 4.637703043 -13.450257845 -1.6671038275 4.5609504363 -13.679030438 -1.598399743 4.4811403079 -13.905768376 
-1.5362405788 4.3949975328 -14.132077148 -1.4802902991 4.3079524624 -14.359657292 -1.4132617365 4.2082396067 -14.578893508 
-1.3346237404 4.1025622853 -14.791374964 -1.2639046148 4.0215870271 -15.017077895 -1.1811068059 3.9440623254 -15.239865784 
-1.0986307142 3.8389919159 -15.45118995 -0.9637992344 3.7108445705 -15.618219079 -0.83607035007 3.5887696699 -15.795089231 
-0.67316557472 3.4694079904 -15.942448736 -0.49469270494 3.3540019539 -16.074087946 -0.32610371771 3.2396122859 -16.218976721 
-0.14820477506 3.1356714575 -16.360568636 0.012364935668 3.0233302117 -16.515800116 0.1549159304 2.9000749565 -16.680078405 
0.27000396814 2.7652117596 -16.856335778 0.3829086188 2.6314831379 -17.034855232 0.49747072388 2.4976228367 -17.212216287 
0.60083379182 2.4004242314 -17.418052405 0.66797056282 2.2936634265 -17.633910656 0.75017747883 2.1834571348 -17.842708636 
0.82913521304 2.0737203209 -18.053002496 0.84139766799 2.0604437881 -18.08156333 -0.5126230829 0.66576812132 -3.5400907975 
-0.52277406038 0.77956108233 -3.7624601292 -0.53449030145 0.89788545023 -3.982373916 -0.53515452505 1.0082199251 -4.2067081811 
-0.53644590475 1.1144897642 -4.4329935178 -0.53696454607 1.2507070137 -4.6426231721 -0.51878168185 1.3625180934 -4.8654856093 
-0.50273855675 1.4613674127 -5.0945520412 -0.49082816941 1.5488159746 -5.328455636 -0.53649707025 1.6336061495 -5.5591610277 
-0.58531137867 1.7180366746 -5.7893536638 -0.67092791921 1.7968155302 -6.0106310912 -0.74962718774 1.8695191762 -6.2365085027 
-0.83361798078 1.9305568324 -6.4639287111 -0.91700232593 1.9931029055 -6.6911621587 -0.9753928223 2.0369035191 -6.930268947 
-1.0475750197 2.0677300162 -7.1676282894 -1.1009443958 2.0963864931 -7.4101783173 -1.0913733021 2.1254249614 -7.6583015962 
-1.0949643175 2.1422303757 -7.9077102622 -1.0664266342 2.165504346 -8.1548653099 -1.1248934303 1.2712178784 -4.0456439831 
-1.3701105494 1.2938911888 -4.0025802454 -1.6157087444 1.3095406912 -3.9585732041 -1.8617989566 1.2971902892 -3.9162993943 
-2.1048102068 1.2871864009 -3.8584594899 -2.3536918581 1.2700404026 -3.8422133105 -2.6027259385 1.2509731012 -3.853097466 
-2.8484396668 1.2518422052 -3.8991844311 -3.0916583036 1.2465957369 -3.9567793032 -3.3338077351 1.2274596438 -4.0159186538 
-3.5641759617 1.2403219499 -4.1121737381 -3.7912733809 1.2235452575 -4.2153498243 -4.0204382622 1.2355273717 -4.3145460244 
-4.2478450942 1.2493184055 -4.4174826076 -4.4834828557 1.2739945955 -4.4972693924 -4.7217834282 1.3027450896 -4.567171082 
-4.9607669071 1.3311838138 -4.6348330046 -5.199558466 1.3700473821 -4.6978267701 -5.4302756926 1.4046385181 -4.7876767264 
-5.6506628044 1.4263130494 -4.9036928272 -5.8669179291 1.4821841882 -5.0156676629 -1.5694943891 1.9404801104 -4.6341551474 
-1.4895185985 2.1771164887 -4.6238063594 -1.381831314 2.3982210442 -4.5789039731 -1.2633369749 2.613011121 -4.5306928281 
-1.1462127147 2.8284302862 -4.4819435621 -1.0110186488 3.0229077887 -4.4019369025 -0.87475765502 3.2163027526 -4.3211202613 
-0.70885179817 3.3900448113 -4.2519180669 -0.54644443097 3.5633239055 -4.1738270778 -0.35505468441 3.7110359584 -4.1101787129 
-0.1483501848 3.8487343787 -4.0816761715 0.067808343634 3.9732436541 -4.0651555501 0.28749992486 4.0913120878 -4.0479667714 
0.50374755256 4.2143802933 -4.0236525716 0.73000447932 4.3146703998 -3.988301509 0.94938943915 4.4138568734 -3.9209792775 
1.1649049221 4.5245782177 -3.8593849555 1.3613181123 4.6701551205 -3.8071429788 1.5518888171 4.8233410947 -3.7550194358 
1.7445140987 4.9527028979 -3.6619548088 1.9520510821 5.0706612644 -3.5883375689 -1.9325266326 2.5204028889 -5.3477890193 
-2.0959306286 2.7087500879 -5.365801979 -2.2633102792 2.8933902522 -5.385602541 -2.4178782198 3.0885612485 -5.4083409222 
-2.5479432722 3.3001525355 -5.43684021 -2.6787178666 3.5102060499 -5.4725547247 -2.8107433098 3.7194501556 -5.5084181681 
-2.9413858908 3.9308341965 -5.5357915725 -3.0679742596 4.1429310387 -5.574396163 -3.2382620752 4.3194711085 -5.6227248669 
-3.4034421657 4.4981947511 -5.679938478 -3.5627383883 4.6713598955 -5.7644283958 -3.7260812147 4.8202216789 -5.8813013633 
-3.8851823596 4.9781299918 -5.9919891692 -4.0318882388 5.1192579924 -6.1371107474 -4.1776034972 5.267674107 -6.2758180666 
-4.3006385034 5.4063912843 -6.4435080543 -4.3993083167 5.5617470301 -6.612708705 -4.4888422999 5.7516090069 -6.7484882896 
-4.5691850661 5.9608949852 -6.8591427934 -4.6250139927 6.1476728782 -7.0152628647 -2.0326142165 2.9638917436 -6.2331597129 
-1.8379661322 2.9856981232 -6.3885193121 -1.6391598511 3.01010672 -6.5381197233 -1.4501474801 3.0433683747 -6.6983320385 
-1.259729815 3.1333976635 -6.8330014113 -1.0836211307 3.1947706356 -6.9994919203 -0.90834424086 3.2595978692 -7.1655504693 
-0.7571583047 3.3005064676 -7.3604075946 -0.60996519126 3.3440873206 -7.5577268704 -0.49002972453 3.3894289805 -7.7723419158 
-0.36913794691 3.4240836293 -7.988407261 -0.25986560906 3.4360709529 -8.212942025 -0.15574965957 3.4430170546 -8.4401239362 
-0.037148734201 3.3980559853 -8.65555913 0.11474077309 3.3523152081 -8.8487879034 0.25761539666 3.307527632 -9.0489900887 
0.37134473956 3.3170620605 -9.2714192487 0.45184428968 3.4066055838 -9.4905123337 0.52755006512 3.4859579188 -9.7151717258 
0.61963079677 3.5558990082 -9.9368232155 0.71155600796 3.6256716727 -10.158220968 -1.9618163346 3.4463146723 -7.10083102 
-2.0309726592 3.3358535308 -7.3141751996 -2.104616748 3.2322445112 -7.5294464686 -2.190188981 3.1546980797 -7.751175907 
-2.2976904794 3.0825969981 -7.9650563921 -2.3991063146 3.0081621014 -8.1810986901 -2.5152911443 2.932724715 -8.3892099249 
-2.6353777226 2.9151416721 -8.607773532 -2.7375207027 2.9036163259 -8.8356638083 -2.8064497636 2.8770738805 -9.0745032588 
-2.8451554793 2.8922226211 -9.3210238122 -2.8645235536 2.9469414014 -9.5641919285 -2.8916055665 2.9711691852 -9.8115369892 
-2.9352780296 2.950425028 -10.056817229 -2.9962578971 2.9862888521 -10.296598883 -3.0614373976 3.0026472426 -10.537397629 
-3.1480640416 3.0173237865 -10.77144981 -3.2331271899 3.0370317538 -11.005705774 -3.288509663 3.025893663 -11.249239601 
-3.320897827 3.0297427036 -11.497102853 -3.3208786737 3.0038642036 -11.745309351 -2.0235998482 3.9580476516 -7.9547512915 
-1.8641792939 4.1284428016 -8.0444763141 -1.703088157 4.2983186837 -8.1321793946 -1.5312487767 4.4435719007 -8.2411414537 
-1.3581433132 4.5892239683 -8.3475368188 -1.1862146091 4.7158958043 -8.4775166889 -1.0186464144 4.8089534404 -8.6380195752 
-0.86800983641 4.8930373924 -8.8189574385 -0.72884017182 4.9763139347 -9.0092120626 -0.59088419752 5.0655988889 -9.1976168027 
-0.45467165021 5.1541236562 -9.3876418208 -0.32760832179 5.2513809607 -9.5797249468 -0.20178605879 5.3528466093 -9.770443274 
-0.086646172337 5.4573309696 -9.9662131005 0.03316044533 5.5673355231 -10.15606929 0.1539268129 5.6761187869 -10.346021089 
0.26904779452 5.7614038547 -10.550895726 0.38126424888 5.8387279751 -10.76048687 0.52095386486 5.9122322598 -10.954352626 
0.65941290954 5.9812120167 -11.150747346 0.83217367741 6.082715558 -11.299200735 -2.0611579752 4.4358891617 -8.8240748816 
-2.2749039929 4.4474172946 -8.9532249573 -2.4981042812 4.4241463158 -9.0634070468 -2.7250734602 4.4038012478 -9.1662227557 
-2.9418091811 4.3703748547 -9.2862573487 -3.1667417949 4.3351481088 -9.3895259095 -3.3871943636 4.2952164277 -9.5004588882 
-3.6033343095 4.2456788972 -9.6159125883 -3.8152564157 4.1965541869 -9.7391026194 -4.0309626123 4.1245192607 -9.8429380958 
-4.2473437712 4.0832631956 -9.9611630135 -4.4655861722 4.0789046166 -10.083028748 -4.6819146229 4.0739012266 -10.208236445 
-4.9124821926 4.0776730423 -10.304799219 -5.1348570088 4.0688567566 -10.418692652 -5.3596202142 4.1049321565 -10.522037062 
[...]
CELL_DATA 451
SCALARS solution%20variable double
LOOKUP_TABLE default
7596.0461211 7354.2526826 7105.6781946 6848.1598125 6641.9479043 6428.0967706 6206.9568352 5977.7172821 5795.1922799 
5605.8148877 5409.8900319 5206.6766601 5045.692858 4878.5957522 4705.6501551 4526.183724 4384.6348811 4237.6578681 
4085.4823933 3927.5022816 3803.3560674 3674.4088913 3540.8599278 3402.1653992 3293.4907932 3180.5826276 3063.6136583 
2942.0977989 2847.0839839 2748.3440944 2646.0281439 2539.7023745 2456.6692261 2370.3588215 2280.9017131 2187.9106863 
2115.3120228 2039.8284674 1961.5740583 1880.2020897 1816.6234317 1750.4986228 1681.9278702 1610.5987983 1554.752146 
1496.6476805 1436.3742707 1373.6475747 1324.3662895 1273.0686497 1219.834545 1164.4011756 1120.6385628 1075.0580467 
1027.7327397 978.41443671 939.25228966 898.42790714 856.00576701 811.73961065 776.42223214 739.55504256 701.1945515 
661.08580764 629.28561383 596.04166952 561.39794407 525.07692041 498.32950682 470.48329032 441.59775279 411.44872818 
379.72678035 345.98689583 309.55236849 28.054517812 6716.4848902 6581.785192 6444.3189083 6303.9044688 6160.3396677 
6013.3982246 5862.8255724 5708.3336465 5549.594371 5386.2314207 5217.8096636 5043.8214349 4863.6683936 4676.6370911 
4481.8653627 4278.2949398 4064.6026782 3839.0972715 3599.5575763 667.13614398 5857.9050519 5735.2241359 5609.9122085 
5481.7882019 5350.6494354 5216.2678236 5078.3851843 4936.70737 4790.8968399 4640.5631358 4485.2504882 4324.42142 
4157.4346464 3983.5146359 3801.7086362 3610.8242068 3409.3352241 3195.2344093 2965.7897027 594.16118906 5098.4272144 
4987.4914876 4874.0860948 4758.0337542 4639.1350845 4517.1645475 4391.86538 4262.9431882 4130.0577469 3992.8123464 
3850.7397281 3703.2831683 3549.7704953 3389.3775143 3221.0750332 3043.5494909 2855.0790744 2653.3303878 2435.0028025 
526.65712511 4429.0300463 4329.3915568 4227.4639779 4123.0767912 4016.0374022 3906.1269231 3793.0948602 3676.652335 
3556.4633143 3432.1330816 3303.19281 3169.0784936 3029.1014879 2882.4061772 2727.9071375 2564.1921751 2389.3654163 
2200.7777737 1994.5267188 464.722739 3840.8383202 3751.9024204 3660.8701764 3567.5803015 3471.8499357 3373.4703815 
3272.2016908 3167.7657005 3059.8369356 2948.0305228 2831.8858186 2710.8437347 2584.2145129 2451.1305191 2310.474549 
2160.7660568 1999.9705076 1825.1568552 1631.822455 408.33594488 3325.2816094 3246.3429357 3165.5060622 3082.6207796 
2997.5162186 2909.9966468 2819.836096 2726.7714 2630.4930232 2530.6327603 2426.7468927 2318.2925664 2204.5937235 
2084.7903202 1957.7595576 1821.9875974 1675.3473966 1514.681922 1334.9321638 357.35578886 2874.219284 2804.5009996 
2733.082252 2659.8251171 2584.5722445 2507.1428075 2427.327297 2344.8807315 2259.5136473 2170.8799156 2078.5599003 
1982.0365763 1880.6606369 1773.5976671 1659.7446401 1537.5906668 1404.9683968 1258.568241 1092.861362 311.53830538 
2480.0242453 2418.714867 2355.8979068 2291.448357 2225.2232409 2157.0577893 2086.7605023 2014.1066719 1938.8297352 
1860.6094981 1779.0557227 1693.6846296 1603.8841772 1508.8607742 1407.5536235 1298.4888359 1179.5117096 1047.2435161 
895.8088179 270.55104544 2135.6273696 2081.911678 2026.8735118 1970.400947 1912.3656827 1852.6194959 1790.9896455 
1727.2728145 1661.2269822 1592.560286 1520.9153911 1445.8469283 1366.7878286 1282.9970431 1193.4742694 1096.8119927 
990.91721256 872.42654014 735.25582238 233.98551811 1834.5292171 1787.611742 1739.5477796 1690.2383418 1639.5697165 
1587.4102365 1533.6060733 1477.975674 1420.3022628 1360.3235135 1297.7169711 1232.0788607 1162.8922057 1089.4768137 
1010.9066671 925.86425407 832.35506392 727.10232075 603.97395449 201.37611521 1570.7863746 1529.9060294 1488.0462262 
1445.1206129 1401.0297785 1355.6583521 1308.871218 1260.5084932 1210.3787317 1158.2495274 1103.8341809 1046.7722082 
986.5998086 922.70223309 854.23271061 779.97470912 698.06690453 605.39112574 495.91787933 172.19837687 1338.9840595 
1303.4195365 1267.0352433 1229.7572156 1191.5000799 1152.1644939 1111.6337989 1069.7695667 1026.4055563 981.33932892 
934.31905545 885.02494938 833.04374412 777.82553932 718.61104982 654.29986587 583.18799008 502.36927253 406.05139696 
145.838995 1134.2083383 1103.2741103 1071.675532 1039.3511184 1006.2296204 972.22781382 937.24575147 901.16397039 
863.83849191 825.09333808 784.70982905 742.41078606 697.83631802 650.50495803 599.7475915 544.58648267 483.49057233 
413.80475644 330.08282998 121.47715673 952.02413899 925.04435134 897.55016207 869.49110883 840.80830304 811.43248646 
781.28147977 750.25677292 718.23887482 685.08082047 650.59885429 614.55862294 576.65390593 536.47226239 493.43615383 
446.69398199 394.89637077 335.6625896 263.96111325 97.632886118 788.35725295 764.51700047 740.30085576 715.67313194 
690.59144507 665.00508513 638.85287014 612.06026921 584.53546609 556.16384429 526.80004362 496.2561353 464.28330557 
430.54206456 394.55071804 355.58881465 312.4953791 263.17451017 203.02133872 70.02427287 639.35005737 617.22193225 
594.80183212 572.06663718 548.98755545 525.52845394 501.64359506 477.27450978 452.34558382 426.75766296 400.37849211 
373.02785704 344.45335277 314.28835853 281.97302131 246.58827061 206.44549524 157.75781985 61.582846861 500.67010512 
475.43984353 449.46257125 422.59096834 394.62796234 365.3023165 334.22653456 300.81829458 264.13714021 222.48741274 
172.17093839 41.666155458 7680.9531256 7764.8553717 7847.9389402 7930.2302929 8011.7545515 8092.5355906 8172.5961219 
8251.957772 8330.6411527 8408.6659267 8486.0508668 8562.8139113 8638.9722146 8714.5421937 8789.5395721 8861.7331741 
8933.5175188 9004.8064267 9075.6120601 9145.9461191 9215.8198659 9285.2441471 9354.2294144 9410.1169715 9465.8056727 
9521.2446868 9576.4386955 9631.3922488 9686.1097697 9740.5955597 9794.8538022 9826.6601497 9858.4565365 9890.2261985 
9921.9695761 9953.6870993 9985.3791885 10017.046255 10048.688699 10048.687414 8924.6472995 10139.037164 11163.637679 
11978.66134 
