# vtk DataFile Version 5.1
vtk output
ASCII
DATASET UNSTRUCTURED_GRID
POINTS 474 double
0 0 -3 -0.11344901018 0.17758382911 -3.1345113591 -0.25315847539 0.33878440002 -3.2648786912 
-0.38126193464 0.50363826191 -3.4024021726 -0.5126230829 0.66576812132 -3.5400907975 -0.65843420624 0.83063257984 -3.6586607204 
-0.82297351213 0.96639713451 -3.7890248355 -0.97532665543 1.1205572503 -3.9136168835 -1.1248934303 1.2712178784 -4.0456439831 
-1.260480867 1.4416481412 -4.1684021702 -1.3678821889 1.6074581306 -4.3216079256 -1.4660695894 1.784059061 -4.4688198332 
-1.5694943891 1.9404801104 -4.6341551474 -1.6843141616 2.0801145574 -4.8068358964 -1.7920938126 2.214324268 -4.9881403376 
-1.8953148049 2.3800598251 -5.1442721788 -1.9325266326 2.5204028889 -5.3477890193 -1.973129178 2.6634701459 -5.548744719 
-1.9865147688 2.7616205381 -5.7782819197 -2.0072616269 2.8605132642 -6.0069515429 -2.0326142165 2.9638917436 -6.2331597129 
-1.9920842053 3.0592208557 -6.4606892244 -1.9658829099 3.1812169213 -6.6773235986 -1.95489032 3.3115244098 -6.8903942944 
-1.9618163346 3.4463146723 -7.10083102 -1.9595558315 3.5807523934 -7.3115948434 -1.9591600912 3.7034011527 -7.5294414069 
-1.9922335507 3.8261433401 -7.744709848 -2.0235998482 3.9580476516 -7.9547512915 -2.053410198 4.0821397433 -8.16972221 
-2.0922570198 4.2101350542 -8.380928566 -2.0673262565 4.3390293584 -8.5936836256 -2.0611579752 4.4358891617 -8.8240748816 
-2.0457609566 4.5389463916 -9.0513239502 -2.0376118219 4.6474567449 -9.2763997037 -2.0620327306 4.7344755807 -9.5094905474 
-2.0678249667 4.7919692102 -9.7527207523 -2.0538188065 4.7894724803 -10.002315612 -2.061454029 4.7954964511 -10.25212637 
-2.0748719743 4.7792135014 -10.501234428 -2.0879807121 4.7450832286 -10.748546549 -2.1011430636 4.7103243177 -10.995768253 
-2.1002295418 4.7008537725 -11.245587136 -2.1048346881 4.6894878057 -11.495286169 -2.0641472069 4.6880886783 -11.741949039 
-2.0210511199 4.6768675797 -11.987950694 -1.9835084387 4.6483785121 -12.233468351 -1.9506827239 4.6230643942 -12.480007736 
-1.9004712217 4.6381689642 -12.724447211 -1.8375331244 4.6537107888 -12.96589544 -1.7745908329 4.6759472614 -13.206818265 
-1.7324654219 4.637703043 -13.450257845 -1.6671038275 4.5609504363 -13.679030438 -1.598399743 4.4811403079 -13.905768376 
-1.5362405788 4.3949975328 -14.132077148 -1.4802902991 4.3079524624 -14.359657292 -1.4132617365 4.2082396067 -14.578893508 
-1.3346237404 4.1025622853 -14.791374964 -1.2639046148 4.0215870271 -15.017077895 -1.1811068059 3.9440623254 -15.239865784 
-1.0986307142 3.8389919159 -15.45118995 -0.9637992344 3.7108445705 -15.618219079 -0.83607035007 3.5887696699 -15.795089231 
-0.67316557472 3.4694079904 -15.942448736 -0.49469270494 3.3540019539 -16.074087946 -0.32610371771 3.2396122859 -16.218976721 
-0.14820477506 3.1356714575 -16.360568636 0.012364935668 3.0233302117 -16.515800116 0.1549159304 2.9000749565 -16.680078405 
0.27000396814 2.7652117596 -16.856335778 0.3829086188 2.6314831379 -17.034855232 0.49747072388 2.4976228367 -17.212216287 
0.60083379182 2.4004242314 -17.418052405 0.66797056282 2.2936634265 -17.633910656 0.75017747883 2.1834571348 -17.842708636 
0.82913521304 2.0737203209 -18.053002496 0.84139766799 2.0604437881 -18.08156333 -0.5126230829 0.66576812132 -3.5400907975 
-0.52277406038 0.77956108233 -3.7624601292 -0.53449030145 0.89788545023 -3.982373916 -0.53515452505 1.0082199251 -4.2067081811 
-0.53644590475 1.1144897642 -4.4329935178 -0.53696454607 1.2507070137 -4.6426231721 -0.51878168185 1.3625180934 -4.8654856093 
-0.50273855675 1.4613674127 -5.0945520412 -0.49082816941 1.5488159746 -5.328455636 -0.53649707025 1.6336061495 -5.5591610277 
-0.58531137867 1.7180366746 -5.7893536638 -0.67092791921 1.7968155302 -6.0106310912 -0.74962718774 1.8695191762 -6.2365085027 
-0.83361798078 1.9305568324 -6.4639287111 -0.91700232593 1.9931029055 -6.6911621587 -0.9753928223 2.0369035191 -6.930268947 
-1.0475750197 2.0677300162 -7.1676282894 -1.1009443958 2.0963864931 -7.4101783173 -1.0913733021 2.1254249614 -7.6583015962 
-1.0949643175 2.1422303757 -7.9077102622 -1.0664266342 2.165504346 -8.1548653099 -1.1248934303 1.2712178784 -4.0456439831 
-1.3701105494 1.2938911888 -4.0025802454 -1.6157087444 1.3095406912 -3.9585732041 -1.8617989566 1.2971902892 -3.9162993943 
-2.1048102068 1.2871864009 -3.8584594899 -2.3536918581 1.2700404026 -3.8422133105 -2.6027259385 1.2509731012 -3.853097466 
-2.8484396668 1.2518422052 -3.8991844311 -3.0916583036 1.2465957369 -3.9567793032 -3.3338077351 1.2274596438 -4.0159186538 
-3.5641759617 1.2403219499 -4.1121737381 -3.7912733809 1.2235452575 -4.2153498243 -4.0204382622 1.2355273717 -4.3145460244 
-4.2478450942 1.2493184055 -4.4174826076 -4.4834828557 1.2739945955 -4.4972693924 -4.7217834282 1.3027450896 -4.567171082 
-4.9607669071 1.3311838138 -4.6348330046 -5.199558466 1.3700473821 -4.6978267701 -5.4302756926 1.4046385181 -4.7876767264 
-5.6506628044 1.4263130494 -4.9036928272 -5.8669179291 1.4821841882 -5.0156676629 -1.5694943891 1.9404801104 -4.6341551474 
-1.4895185985 2.1771164887 -4.6238063594 -1.381831314 2.3982210442 -4.5789039731 -1.2633369749 2.613011121 -4.5306928281 
-1.1462127147 2.8284302862 -4.4819435621 -1.0110186488 3.0229077887 -4.4019369025 -0.87475765502 3.2163027526 -4.3211202613 
-0.70885179817 3.3900448113 -4.2519180669 -0.54644443097 3.5633239055 -4.1738270778 -0.35505468441 3.7110359584 -4.1101787129 
-0.1483501848 3.8487343787 -4.0816761715 0.067808343634 3.9732436541 -4.0651555501 0.28749992486 4.0913120878 -4.0479667714 
0.50374755256 4.2143802933 -4.0236525716 0.73000447932 4.3146703998 -3.988301509 0.94938943915 4.4138568734 -3.9209792775 
1.1649049221 4.5245782177 -3.8593849555 1.3613181123 4.6701551205 -3.8071429788 1.5518888171 4.8233410947 -3.7550194358 
1.7445140987 4.9527028979 -3.6619548088 1.9520510821 5.0706612644 -3.5883375689 -1.9325266326 2.5204028889 -5.3477890193 
-2.0959306286 2.7087500879 -5.365801979 -2.2633102792 2.8933902522 -5.385602541 -2.4178782198 3.0885612485 -5.4083409222 
-2.5479432722 3.3001525355 -5.43684021 -2.6787178666 3.5102060499 -5.4725547247 -2.8107433098 3.7194501556 -5.5084181681 
-2.9413858908 3.9308341965 -5.5357915725 -3.0679742596 4.1429310387 -5.574396163 -3.2382620752 4.3194711085 -5.6227248669 
-3.4034421657 4.4981947511 -5.679938478 -3.5627383883 4.6713598955 -5.7644283958 -3.7260812147 4.8202216789 -5.8813013633 
-3.8851823596 4.9781299918 -5.9919891692 -4.0318882388 5.1192579924 -6.1371107474 -4.1776034972 5.267674107 -6.2758180666 
-4.3006385034 5.4063912843 -6.4435080543 -4.3993083167 5.5617470301 -6.612708705 -4.4888422999 5.7516090069 -6.7484882896 
-4.5691850661 5.9608949852 -6.8591427934 -4.6250139927 6.1476728782 -7.0152628647 -2.0326142165 2.9638917436 -6.2331597129 
-1.8379661322 2.9856981232 -6.3885193121 -1.6391598511 3.01010672 -6.5381197233 -1.4501474801 3.0433683747 -6.6983320385 
-1.259729815 3.1333976635 -6.8330014113 -1.0836211307 3.1947706356 -6.9994919203 -0.90834424086 3.2595978692 -7.1655504693 
-0.7571583047 3.3005064676 -7.3604075946 -0.60996519126 3.3440873206 -7.5577268704 -0.49002972453 3.3894289805 -7.7723419158 
-0.36913794691 3.4240836293 -7.988407261 -0.25986560906 3.4360709529 -8.212942025 -0.15574965957 3.4430170546 -8.4401239362 
-0.037148734201 3.3980559853 -8.65555913 0.11474077309 3.3523152081 -8.8487879034 0.25761539666 3.307527632 -9.0489900887 
0.37134473956 3.3170620605 -9.2714192487 0.45184428968 3.4066055838 -9.4905123337 0.52755006512 3.4859579188 -9.7151717258 
0.61963079677 3.5558990082 -9.9368232155 0.71155600796 3.6256716727 -10.158220968 -1.9618163346 3.4463146723 -7.10083102 
-2.0309726592 3.3358535308 -7.3141751996 -2.104616748 3.2322445112 -7.5294464686 -2.190188981 3.1546980797 -7.751175907 
-2.2976904794 3.0825969981 -7.9650563921 -2.3991063146 3.0081621014 -8.1810986901 -2.5152911443 2.932724715 -8.3892099249 
-2.6353777226 2.9151416721 -8.607773532 -2.7375207027 2.9036163259 -8.8356638083 -2.8064497636 2.8770738805 -9.0745032588 
-2.8451554793 2.8922226211 -9.3210238122 -2.8645235536 2.9469414014 -9.5641919285 -2.8916055665 2.9711691852 -9.8115369892 
-2.9352780296 2.950425028 -10.056817229 -2.9962578971 2.9862888521 -10.296598883 -3.0614373976 3.0026472426 -10.537397629 
-3.1480640416 3.0173237865 -10.77144981 -3.2331271899 3.0370317538 -11.005705774 -3.288509663 3.025893663 -11.249239601 
-3.320897827 3.0297427036 -11.497102853 -3.3208786737 3.0038642036 -11.745309351 -2.0235998482 3.9580476516 -7.9547512915 
-1.8641792939 4.1284428016 -8.0444763141 -1.703088157 4.2983186837 -8.1321793946 -1.5312487767 4.4435719007 -8.2411414537 
-1.3581433132 4.5892239683 -8.3475368188 -1.1862146091 4.7158958043 -8.4775166889 -1.0186464144 4.8089534404 -8.6380195752 
-0.86800983641 4.8930373924 -8.8189574385 -0.72884017182 4.9763139347 -9.0092120626 -0.59088419752 5.0655988889 -9.1976168027 
-0.45467165021 5.1541236562 -9.3876418208 -0.32760832179 5.2513809607 -9.5797249468 -0.20178605879 5.3528466093 -9.770443274 
-0.086646172337 5.4573309696 -9.9662131005 0.03316044533 5.5673355231 -10.15606929 0.1539268129 5.6761187869 -10.346021089 
0.26904779452 5.7614038547 -10.550895726 0.38126424888 5.8387279751 -10.76048687 0.52095386486 5.9122322598 -10.954352626 
0.65941290954 5.9812120167 -11.150747346 0.83217367741 6.082715558 -11.299200735 -2.0611579752 4.4358891617 -8.8240748816 
-2.2749039929 4.4474172946 -8.9532249573 -2.4981042812 4.4241463158 -9.0634070468 -2.7250734602 4.4038012478 -9.1662227557 
-2.9418091811 4.3703748547 -9.2862573487 -3.1667417949 4.3351481088 -9.3895259095 -3.3871943636 4.2952164277 -9.5004588882 
-3.6033343095 4.2456788972 -9.6159125883 -3.8152564157 4.1965541869 -9.7391026194 -4.0309626123 4.1245192607 -9.8429380958 
-4.2473437712 4.0832631956 -9.9611630135 -4.4655861722 4.0789046166 -10.083028748 -4.6819146229 4.0739012266 -10.208236445 
-4.9124821926 4.0776730423 -10.304799219 -5.1348570088 4.0688567566 -10.418692652 -5.3596202142 4.1049321565 -10.522037062 
[...]
CELL_DATA 451
SCALARS solution%20variable double
LOOKUP_TABLE default
7599.3380424 7357.492901 7108.8653948 6851.2927836 6645.0356514 6431.1380229 6209.9503741 5980.6620042 5798.0977546 
5608.680018 5412.7137584 5209.4580686 5048.4419671 4881.3117216 4708.3321658 4528.8311489 4387.2580876 4240.2563703 
4088.0557092 3930.0501877 3805.8892095 3676.9272549 3543.3634835 3404.654467 3295.9762655 3183.0651038 3066.0937001 
2944.5764402 2849.5723682 2750.8436079 2648.5401078 2542.2287433 2459.2214049 2372.9391928 2283.5125583 2190.55513 
2118.0016935 2042.5669905 1964.3649079 1883.0498545 1819.5397352 1753.488607 1684.9964532 1613.7523595 1558.001681 
1500.000117 1439.8362051 1377.2275011 1328.0730497 1276.9111316 1223.821142 1168.542713 1124.9383395 1079.5267601 
1032.3803369 983.25390966 944.27363649 903.64289711 861.42510119 817.37774563 782.23406104 745.54922299 707.37809218 
667.46969343 635.76873594 602.6200508 568.06481438 531.82793647 505.14560097 477.34658322 448.48500769 418.33576449 
386.58945644 352.80328169 316.30780928 28.398627476 6719.5948835 6584.8710651 6447.3794587 6306.9384822 6163.3459208 
6016.3754898 5865.772623 5711.249265 5552.4773601 5389.080618 5220.6239632 5046.5998164 4866.4099644 4679.3411472 
4484.5314784 4280.9231034 4067.193502 3841.6523304 3602.0799751 667.41268131 5860.8256924 5738.1193665 5612.7806392 
5484.6284182 5353.4599996 5219.0472776 5081.1320537 4939.4201701 4793.5740844 4643.2033495 4487.8522261 4326.9832951 
4159.9553709 3985.9930846 3804.1439433 3613.2159205 3411.6835594 3197.5406805 2968.0571028 594.4355056 5101.1838415 
4990.2218118 4876.7885277 4760.7066682 4641.776813 4519.7733855 4394.4395853 4265.480985 4132.5573308 3995.2718936 
3853.15741 3705.6571749 3552.0990718 3391.6590211 3223.3080437 3045.732956 2857.2126099 2655.4148008 2437.0411189 
526.92962892 4431.6523889 4331.9870932 4230.0309081 4125.6132609 4018.5415004 3908.5966803 3795.5282467 3679.0472607 
3558.8176296 3434.4445812 3305.459241 3171.2975711 3031.2709235 2884.5237289 2729.9706992 2566.199939 2391.3161781 
2202.6715374 1996.3659925 464.99457516 3843.3612055 3754.3983435 3663.3371063 3570.0161364 3474.252498 3375.8374134 
3274.5308493 3170.054553 3062.0829553 2950.231086 2834.0382047 2712.9451313 2586.2620312 2453.121228 2312.4055453 
2162.6346102 2001.7743589 1826.8948691 1633.4961703 408.60923328 3327.7460315 3248.7805263 3167.9145264 3084.9977332 
2999.8591815 2912.3030348 2822.1032126 2728.9964267 2632.6730095 2532.7646131 2428.8273665 2320.3182552 2206.5610596 
2086.6955852 1959.5989242 1823.7572373 1677.0437429 1516.3023207 1336.4766279 357.63390036 2876.6739333 2806.9291798 
2735.4813494 2662.192408 2586.9048858 2509.4378255 2429.581575 2347.0909946 2261.6764461 2172.9916067 2080.6166251 
1984.0342378 1882.5948768 1775.4638489 1661.5378501 1539.3057666 1406.6002142 1260.1121546 1094.3151599 311.82613596 
2482.5275937 2421.1923518 2358.3465085 2293.8649211 2227.6044652 2159.4002093 2089.0604739 2016.3603508 1941.0330525 
1862.7581314 1781.145061 1695.7097325 1605.839727 1510.7410231 1409.3523428 1300.1992924 1181.1267438 1048.7559808 
897.21338709 270.85555912 2138.2502457 2084.5096615 2029.4430433 1972.9382994 1914.8669445 1855.080553 1793.4061577 
1729.6401886 1663.5403381 1594.8144163 1523.1047103 1447.9654099 1368.8289268 1284.9535954 1195.3383799 1098.5749057 
992.56922812 873.957319 736.65586871 234.31619728 1837.3578174 1790.4172003 1742.3257977 1692.9844077 1642.2790842 
1590.0779016 1536.2267433 1480.5437327 1422.8117254 1362.7679715 1300.0895219 1234.3720178 1165.097782 1091.5857682 
1012.9089027 927.74835514 834.10813885 728.70971808 605.42027657 201.74601056 1573.9250043 1533.0248486 1491.139899 
1448.1835222 1404.0559993 1358.6416197 1311.8048898 1263.3855009 1213.1915223 1160.9899881 1106.493543 1049.3409208 
989.06737035 925.05713156 856.46197686 782.06348742 699.99785595 607.14370886 497.4683744 172.62469422 1342.5570265 
1306.9794172 1270.5752318 1233.2701177 1194.9782783 1155.5999056 1115.0178241 1073.0930243 1029.6586046 984.51136302 
937.39878997 888.00006582 835.90066339 780.54910499 721.1840741 656.70245817 585.39653779 504.35491594 407.77841722 
146.34506931 1138.3584074 1107.4248814 1075.8181106 1043.4760389 1010.3267966 976.28647906 941.25466376 905.11108544 
867.71085907 828.87696737 788.38951777 745.96988717 701.25642236 653.76544431 602.82496573 547.45336613 486.11407579 
416.14376196 332.08376143 122.09424176 956.90458427 929.95618706 902.48203677 874.43078768 845.74259439 816.34715604 
786.16114877 755.08479476 722.99718298 689.74973621 655.15683754 618.98194029 580.91617368 540.54379424 497.2829889 
450.27635997 398.16618764 338.55884471 266.40150577 98.404884827 794.11374456 770.38132432 746.25910243 721.70976851 
696.68916047 671.14461522 645.01279754 618.21679038 590.66211518 562.23115776 532.77514122 502.10217878 469.95877179 
435.99972438 399.73612538 360.43793017 316.93055275 267.09710374 206.29752268 70.986966413 645.9656119 624.05982409 
601.84642516 579.29927595 556.38615921 533.06704935 509.29177478 484.99679933 460.10069122 434.49757264 408.04734178 
380.56049491 351.77339302 321.30539173 288.5782783 252.64715881 211.78291857 162.12352534 63.138869217 507.4339207 
482.18724989 456.15778485 429.19364416 401.09245945 371.57673813 340.25142636 306.52482185 269.44452896 227.29991984 
176.38079626 42.433886997 7684.2631737 7768.1821897 7851.2812005 7933.586697 8015.1238291 8095.9164985 8175.9874431 
8255.3583147 8334.0497496 8412.0814344 8489.4721647 8566.2399014 8642.4018204 8717.9743602 8792.9732648 8865.1680526 
8936.9525291 9008.2405696 9079.0443555 9149.3756057 9219.2456007 9288.6652049 9357.6448881 9413.5303945 9469.2160158 
9524.6509619 9579.8399308 9634.787489 9689.4980759 9743.9760087 9798.225487 9830.0296338 9861.8227727 9893.5881589 
9925.3262437 9957.0374683 9988.7222646 10020.381055 10052.014253 10052.013015 8928.0405649 10142.182813 11166.56433 
11981.387605 
