# vtk DataFile Version 5.1
vtk output
ASCII
DATASET UNSTRUCTURED_GRID
POINTS 474 double
0 0 -3 -0.11344901018 0.17758382911 -3.1345113591 -0.25315847539 0.33878440002 -3.2648786912 
-0.38126193464 0.50363826191 -3.4024021726 -0.5126230829 0.66576812132 -3.5400907975 -0.65843420624 0.83063257984 -3.6586607204 
-0.82297351213 0.96639713451 -3.7890248355 -0.97532665543 1.1205572503 -3.9136168835 -1.1248934303 1.2712178784 -4.0456439831 
-1.260480867 1.4416481412 -4.1684021702 -1.3678821889 1.6074581306 -4.3216079256 -1.4660695894 1.784059061 -4.4688198332 
-1.5694943891 1.9404801104 -4.6341551474 -1.6843141616 2.0801145574 -4.8068358964 -1.7920938126 2.214324268 -4.9881403376 
-1.8953148049 2.3800598251 -5.1442721788 -1.9325266326 2.5204028889 -5.3477890193 -1.973129178 2.6634701459 -5.548744719 
-1.9865147688 2.7616205381 -5.7782819197 -2.0072616269 2.8605132642 -6.0069515429 -2.0326142165 2.9638917436 -6.2331597129 
-1.9920842053 3.0592208557 -6.4606892244 -1.9658829099 3.1812169213 -6.6773235986 -1.95489032 3.3115244098 -6.8903942944 
-1.9618163346 3.4463146723 -7.10083102 -1.9595558315 3.5807523934 -7.3115948434 -1.9591600912 3.7034011527 -7.5294414069 
-1.9922335507 3.8261433401 -7.744709848 -2.0235998482 3.9580476516 -7.9547512915 -2.053410198 4.0821397433 -8.16972221 
-2.0922570198 4.2101350542 -8.380928566 -2.0673262565 4.3390293584 -8.5936836256 -2.0611579752 4.4358891617 -8.8240748816 
-2.0457609566 4.5389463916 -9.0513239502 -2.0376118219 4.6474567449 -9.2763997037 -2.0620327306 4.7344755807 -9.5094905474 
-2.0678249667 4.7919692102 -9.7527207523 -2.0538188065 4.7894724803 -10.002315612 -2.061454029 4.7954964511 -10.25212637 
-2.0748719743 4.7792135014 -10.501234428 -2.0879807121 4.7450832286 -10.748546549 -2.1011430636 4.7103243177 -10.995768253 
-2.1002295418 4.7008537725 -11.245587136 -2.1048346881 4.6894878057 -11.495286169 -2.0641472069 4.6880886783 -11.741949039 
-2.0210511199 4.6768675797 -11.987950694 -1.9835084387 4.6483785121 -12.233468351 -1.9506827239 4.6230643942 -12.480007736 
-1.9004712217 4.6381689642 -12.724447211 -1.8375331244 4.6537107888 -12.96589544 -1.7745908329 4.6759472614 -13.206818265 
-1.7324654219 4.637703043 -13.450257845 -1.6671038275 4.5609504363 -13.679030438 -1.598399743 4.4811403079 -13.905768376 
-1.5362405788 4.3949975328 -14.132077148 -1.4802902991 4.3079524624 -14.359657292 -1.4132617365 4.2082396067 -14.578893508 
-1.3346237404 4.1025622853 -14.791374964 -1.2639046148 4.0215870271 -15.017077895 -1.1811068059 3.9440623254 -15.239865784 
-1.0986307142 3.8389919159 -15.45118995 -0.9637992344 3.7108445705 -15.618219079 -0.83607035007 3.5887696699 -15.795089231 
-0.67316557472 3.4694079904 -15.942448736 -0.49469270494 3.3540019539 -16.074087946 -0.32610371771 3.2396122859 -16.218976721 
-0.14820477506 3.1356714575 -16.360568636 0.012364935668 3.0233302117 -16.515800116 0.1549159304 2.9000749565 -16.680078405 
0.27000396814 2.7652117596 -16.856335778 0.3829086188 2.6314831379 -17.034855232 0.49747072388 2.4976228367 -17.212216287 
0.60083379182 2.4004242314 -17.418052405 0.66797056282 2.2936634265 -17.633910656 0.75017747883 2.1834571348 -17.842708636 
0.82913521304 2.0737203209 -18.053002496 0.84139766799 2.0604437881 -18.08156333 -0.5126230829 0.66576812132 -3.5400907975 
-0.52277406038 0.77956108233 -3.7624601292 -0.53449030145 0.89788545023 -3.982373916 -0.53515452505 1.0082199251 -4.2067081811 
-0.53644590475 1.1144897642 -4.4329935178 -0.53696454607 1.2507070137 -4.6426231721 -0.51878168185 1.3625180934 -4.8654856093 
-0.50273855675 1.4613674127 -5.0945520412 -0.49082816941 1.5488159746 -5.328455636 -0.53649707025 1.6336061495 -5.5591610277 
-0.58531137867 1.7180366746 -5.7893536638 -0.67092791921 1.7968155302 -6.0106310912 -0.74962718774 1.8695191762 -6.2365085027 
-0.83361798078 1.9305568324 -6.4639287111 -0.91700232593 1.9931029055 -6.6911621587 -0.9753928223 2.0369035191 -6.930268947 
-1.0475750197 2.0677300162 -7.1676282894 -1.1009443958 2.0963864931 -7.4101783173 -1.0913733021 2.1254249614 -7.6583015962 
-1.0949643175 2.1422303757 -7.9077102622 -1.0664266342 2.165504346 -8.1548653099 -1.1248934303 1.2712178784 -4.0456439831 
-1.3701105494 1.2938911888 -4.0025802454 -1.6157087444 1.3095406912 -3.9585732041 -1.8617989566 1.2971902892 -3.9162993943 
-2.1048102068 1.2871864009 -3.8584594899 -2.3536918581 1.2700404026 -3.8422133105 -2.6027259385 1.2509731012 -3.853097466 
-2.8484396668 1.2518422052 -3.8991844311 -3.0916583036 1.2465957369 -3.9567793032 -3.3338077351 1.2274596438 -4.0159186538 
-3.5641759617 1.2403219499 -4.1121737381 -3.7912733809 1.2235452575 -4.2153498243 -4.0204382622 1.2355273717 -4.3145460244 
-4.2478450942 1.2493184055 -4.4174826076 -4.4834828557 1.2739945955 -4.4972693924 -4.7217834282 1.3027450896 -4.567171082 
-4.9607669071 1.3311838138 -4.6348330046 -5.199558466 1.3700473821 -4.6978267701 -5.4302756926 1.4046385181 -4.7876767264 
-5.6506628044 1.4263130494 -4.9036928272 -5.8669179291 1.4821841882 -5.0156676629 -1.5694943891 1.9404801104 -4.6341551474 
-1.4895185985 2.1771164887 -4.6238063594 -1.381831314 2.3982210442 -4.5789039731 -1.2633369749 2.613011121 -4.5306928281 
-1.1462127147 2.8284302862 -4.4819435621 -1.0110186488 3.0229077887 -4.4019369025 -0.87475765502 3.2163027526 -4.3211202613 
-0.70885179817 3.3900448113 -4.2519180669 -0.54644443097 3.5633239055 -4.1738270778 -0.35505468441 3.7110359584 -4.1101787129 
-0.1483501848 3.8487343787 -4.0816761715 0.067808343634 3.9732436541 -4.0651555501 0.28749992486 4.0913120878 -4.0479667714 
0.50374755256 4.2143802933 -4.0236525716 0.73000447932 4.3146703998 -3.988301509 0.94938943915 4.4138568734 -3.9209792775 
1.1649049221 4.5245782177 -3.8593849555 1.3613181123 4.6701551205 -3.8071429788 1.5518888171 4.8233410947 -3.7550194358 
1.7445140987 4.9527028979 -3.6619548088 1.9520510821 5.0706612644 -3.5883375689 -1.9325266326 2.5204028889 -5.3477890193 
-2.0959306286 2.7087500879 -5.365801979 -2.2633102792 2.8933902522 -5.385602541 -2.4178782198 3.0885612485 -5.4083409222 
-2.5479432722 3.3001525355 -5.43684021 -2.6787178666 3.5102060499 -5.4725547247 -2.8107433098 3.7194501556 -5.5084181681 
-2.9413858908 3.9308341965 -5.5357915725 -3.0679742596 4.1429310387 -5.574396163 -3.2382620752 4.3194711085 -5.6227248669 
-3.4034421657 4.4981947511 -5.679938478 -3.5627383883 4.6713598955 -5.7644283958 -3.7260812147 4.8202216789 -5.8813013633 
-3.8851823596 4.9781299918 -5.9919891692 -4.0318882388 5.1192579924 -6.1371107474 -4.1776034972 5.267674107 -6.2758180666 
-4.3006385034 5.4063912843 -6.4435080543 -4.3993083167 5.5617470301 -6.612708705 -4.4888422999 5.7516090069 -6.7484882896 
-4.5691850661 5.9608949852 -6.8591427934 -4.6250139927 6.1476728782 -7.0152628647 -2.0326142165 2.9638917436 -6.2331597129 
-1.8379661322 2.9856981232 -6.3885193121 -1.6391598511 3.01010672 -6.5381197233 -1.4501474801 3.0433683747 -6.6983320385 
-1.259729815 3.1333976635 -6.8330014113 -1.0836211307 3.1947706356 -6.9994919203 -0.90834424086 3.2595978692 -7.1655504693 
-0.7571583047 3.3005064676 -7.3604075946 -0.60996519126 3.3440873206 -7.5577268704 -0.49002972453 3.3894289805 -7.7723419158 
-0.36913794691 3.4240836293 -7.988407261 -0.25986560906 3.4360709529 -8.212942025 -0.15574965957 3.4430170546 -8.4401239362 
-0.037148734201 3.3980559853 -8.65555913 0.11474077309 3.3523152081 -8.8487879034 0.25761539666 3.307527632 -9.0489900887 
0.37134473956 3.3170620605 -9.2714192487 0.45184428968 3.4066055838 -9.4905123337 0.52755006512 3.4859579188 -9.7151717258 
0.61963079677 3.5558990082 -9.9368232155 0.71155600796 3.6256716727 -10.158220968 -1.9618163346 3.4463146723 -7.10083102 
-2.0309726592 3.3358535308 -7.3141751996 -2.104616748 3.2322445112 -7.5294464686 -2.190188981 3.1546980797 -7.751175907 
-2.2976904794 3.0825969981 -7.9650563921 -2.3991063146 3.0081621014 -8.1810986901 -2.5152911443 2.932724715 -8.3892099249 
-2.6353777226 2.9151416721 -8.607773532 -2.7375207027 2.9036163259 -8.8356638083 -2.8064497636 2.8770738805 -9.0745032588 
-2.8451554793 2.8922226211 -9.3210238122 -2.8645235536 2.9469414014 -9.5641919285 -2.8916055665 2.9711691852 -9.8115369892 
-2.9352780296 2.950425028 -10.056817229 -2.9962578971 2.9862888521 -10.296598883 -3.0614373976 3.0026472426 -10.537397629 
-3.1480640416 3.0173237865 -10.77144981 -3.2331271899 3.0370317538 -11.005705774 -3.288509663 3.025893663 -11.249239601 
-3.320897827 3.0297427036 -11.497102853 -3.3208786737 3.0038642036 -11.745309351 -2.0235998482 3.9580476516 -7.9547512915 
-1.8641792939 4.1284428016 -8.0444763141 -1.703088157 4.2983186837 -8.1321793946 -1.5312487767 4.4435719007 -8.2411414537 
-1.3581433132 4.5892239683 -8.3475368188 -1.1862146091 4.7158958043 -8.4775166889 -1.0186464144 4.8089534404 -8.6380195752 
-0.86800983641 4.8930373924 -8.8189574385 -0.72884017182 4.9763139347 -9.0092120626 -0.59088419752 5.0655988889 -9.1976168027 
-0.45467165021 5.1541236562 -9.3876418208 -0.32760832179 5.2513809607 -9.5797249468 -0.20178605879 5.3528466093 -9.770443274 
-0.086646172337 5.4573309696 -9.9662131005 0.03316044533 5.5673355231 -10.15606929 0.1539268129 5.6761187869 -10.346021089 
0.26904779452 5.7614038547 -10.550895726 0.38126424888 5.8387279751 -10.76048687 0.52095386486 5.9122322598 -10.954352626 
0.65941290954 5.9812120167 -11.150747346 0.83217367741 6.082715558 -11.299200735 -2.0611579752 4.4358891617 -8.8240748816 
-2.2749039929 4.4474172946 -8.9532249573 -2.4981042812 4.4241463158 -9.0634070468 -2.7250734602 4.4038012478 -9.1662227557 
-2.9418091811 4.3703748547 -9.2862573487 -3.1667417949 4.3351481088 -9.3895259095 -3.3871943636 4.2952164277 -9.5004588882 
-3.6033343095 4.2456788972 -9.6159125883 -3.8152564157 4.1965541869 -9.7391026194 -4.0309626123 4.1245192607 -9.8429380958 
-4.2473437712 4.0832631956 -9.9611630135 -4.4655861722 4.0789046166 -10.083028748 -4.6819146229 4.0739012266 -10.208236445 
-4.9124821926 4.0776730423 -10.304799219 -5.1348570088 4.0688567566 -10.418692652 -5.3596202142 4.1049321565 -10.522037062 
[...]
CELL_DATA 451
SCALARS solution%20variable double
LOOKUP_TABLE default
7610.7608149 7368.7365542 7119.925385 6862.1649339 6655.7512205 6441.6926307 6220.3398234 5990.8824996 5808.1825322 
5618.6253125 5422.5159352 5219.1140024 5057.9864814 4890.7419574 4717.645339 4538.0251489 4396.368988 4249.2825639 
4096.9956035 3938.9030978 3814.6922292 3685.6804429 3552.0668461 3413.3092395 3304.6204669 3191.70096 3074.7233056 
2953.2035478 2858.2359506 2759.5486651 2657.2914088 2551.0332794 2468.1191418 2381.9386269 2292.6218217 2199.7853062 
2127.3935854 2052.1334197 1974.1181423 1893.0060433 1829.7396473 1763.9502609 1695.7370348 1624.7941006 1569.383 
1511.7449908 1451.9673565 1389.7741225 1341.0656593 1290.3799371 1237.7944483 1183.0569614 1140.0042823 1095.1797683 
1048.6528678 1000.1883423 961.83587054 921.87032553 880.35093096 837.04701272 802.50017193 766.43761496 728.90791233 
689.67220332 658.32229033 625.50872742 591.2629792 555.31751626 528.87216519 501.24843784 472.48283877 442.34738587 
410.53309935 376.60468365 339.91634775 29.570991706 6730.3873294 6595.5798498 6458.0004182 6317.4674116 6173.7785851 
6026.7076384 5876.00001 5721.3676768 5562.4826533 5398.968772 5230.3911527 5056.2425141 4875.925087 4688.726266 
4493.7851308 4290.0452616 4076.1863023 3850.5212433 3610.8357691 668.37183658 5870.9626268 5748.1681394 5622.7364363 
5494.48634 5363.2150674 5228.6944428 5090.6662117 4948.836181 4802.8668037 4652.3676726 4496.883154 4335.8760307 
4168.7054635 3994.5966477 3812.5979921 3621.5189066 3419.8362475 3205.5476454 2975.9294269 595.3870949 5110.7537478 
4999.7004187 4886.1703316 4769.9860313 4650.9479623 4528.8304152 4403.3764624 4274.2915597 4141.235356 4003.8110564 
3861.5513821 3713.8996934 3560.1840682 3399.5808283 3231.0617356 3053.3149188 2864.6215383 2662.6535207 2444.1201469 
527.87513345 4440.7592623 4341.0008642 4238.9453386 4134.4219246 4027.2377753 3917.1737421 3803.9790638 3687.3645927 
3566.9940312 3442.4724151 3313.3307071 3179.0047605 3038.8059172 2891.8787724 2737.1385134 2573.1742837 2398.0929115 
2209.2507146 2002.7563514 465.93806494 3852.1271288 3763.0705461 3671.9085456 3578.479524 3482.6002843 3384.0617713 
3282.6236577 3178.0073801 3069.8870446 2957.8773469 2841.5172123 2720.2471451 2593.3770482 2460.0391022 2319.1162347 
2169.1286774 2008.0440111 1832.9362229 1639.3146276 409.55820841 3336.3150243 3257.2561511 3176.2888184 3093.2624192 
3008.0056558 2920.3223323 2829.9859792 2736.7328868 2640.2529307 2540.1772704 2436.0615078 2327.3620756 2213.4021952 
2093.3211552 1965.9956766 1829.9119255 1682.9440412 1521.9390897 1341.8500055 358.60027085 2885.217415 2815.380426 
2743.831278 2670.4315567 2595.0233787 2517.425335 2437.4272778 2354.7835208 2269.2038213 2180.3411854 2087.7750168 
1990.9872275 1889.3273469 1781.9597213 1667.7800925 1545.2765788 1412.2816956 1265.488347 1099.3785127 312.82720017 
2491.2517511 2429.8262309 2366.8796005 2302.2862494 2235.9025422 2167.5629853 2097.0752768 2024.213815 1948.7110347 
1870.2456093 1788.4260135 1702.7669971 1612.6548351 1517.2940179 1415.6216069 1306.1614693 1186.7570197 1054.0296246 
902.11206806 271.9159141 2147.404974 2093.5773371 2038.4112524 1981.7940462 1923.5965961 1863.6697728 1801.8398265 
1737.9023094 1671.6139203 1602.6813336 1530.7455253 1455.3591563 1375.9528378 1291.7827673 1201.8453697 1104.7292971 
998.33735252 879.30333875 741.54699164 235.46931333 1847.2468465 1800.2251503 1752.037638 1702.5843679 1651.7505837 
1599.4034637 1545.3878936 1489.5208733 1431.5839806 1371.3129953 1308.383254 1242.3883715 1172.8082392 1098.9588477 
1019.9094609 934.33668082 840.23942047 734.33309543 610.48246533 203.03784131 1584.9143079 1543.9445841 1501.9713549 
1458.9070133 1414.6507754 1369.0857557 1322.0751512 1273.457179 1223.0382283 1170.5833929 1115.803042 1058.3331957 
997.70580437 933.30159704 864.26729227 789.37792915 706.76110494 613.28440348 502.90435649 174.11540225 1355.0789487 
1319.4550523 1282.9806472 1245.5800425 1207.1659816 1167.637051 1126.8742905 1084.7366859 1041.0550523 995.62355024 
948.18731455 898.42194879 845.9085587 790.09020022 730.19851673 665.12103274 593.13715251 511.31738413 413.83912371 
148.1152041 1152.9010834 1121.9682773 1090.3308714 1057.9248559 1024.6762383 990.49878889 955.29046522 918.92825817 
881.26418083 842.11765587 801.26463195 758.42152675 713.22062883 665.17064553 613.58969432 557.48277062 495.29433429 
424.33280136 339.09708678 124.2478731 973.97384889 947.12593579 919.71200287 891.67775504 862.96016106 833.48545546 
803.16651577 771.89935799 739.55835765 705.9895789 671.00120529 634.34936495 595.71630822 554.67519139 510.62979037 
462.70311064 409.5092121 348.61092308 274.88409306 101.07203421 814.16105977 790.7669952 766.93253282 742.61512254 
717.76491045 692.32302716 666.21933674 639.36942228 611.67046531 582.99547708 553.18499491 522.03472953 489.27644744 
454.54691278 417.33425738 376.87773567 331.95901395 280.39375517 217.43026113 74.222791757 668.89371865 647.67253714 
626.08274141 604.08830796 581.64600434 558.70350244 535.19684715 511.04699069 486.15493476 460.39473016 433.6030503 
405.56303179 375.97797173 344.42578742 310.27356235 272.49859774 229.24847001 176.43189663 68.172832177 530.93769465 
505.6025403 479.36128907 452.04779186 423.44319558 393.25059822 361.05155702 326.22545011 287.7834474 243.97076073 
191.04983198 45.044253264 7695.7487489 7779.7258693 7862.8783873 7945.2328951 8026.8146397 8107.6476164 8187.7546535 
8267.1574902 8345.8768476 8423.9324941 8501.3433053 8578.127319 8654.3017867 8729.8832201 8804.8874348 8877.0863527 
8948.8713075 9020.1563644 9090.9537708 9161.2753103 9231.1323268 9300.5357472 9369.496102 9425.3745193 9481.0494851 
9536.4703511 9591.6418729 9646.5686731 9701.2552474 9755.7059683 9809.9250905 9841.72162 9873.5035126 9905.2540899 
9936.9738412 9968.6632468 10000.322778 10031.952896 10063.554055 10063.552979 8939.8147104 10153.099264 11176.721951 
11990.850729 
