# vtk DataFile Version 5.1
vtk output
ASCII
DATASET UNSTRUCTURED_GRID
POINTS 474 double
0 0 -3 -0.11344901018 0.17758382911 -3.1345113591 -0.25315847539 0.33878440002 -3.2648786912 
-0.38126193464 0.50363826191 -3.4024021726 -0.5126230829 0.66576812132 -3.5400907975 -0.65843420624 0.83063257984 -3.6586607204 
-0.82297351213 0.96639713451 -3.7890248355 -0.97532665543 1.1205572503 -3.9136168835 -1.1248934303 1.2712178784 -4.0456439831 
-1.260480867 1.4416481412 -4.1684021702 -1.3678821889 1.6074581306 -4.3216079256 -1.4660695894 1.784059061 -4.4688198332 
-1.5694943891 1.9404801104 -4.6341551474 -1.6843141616 2.0801145574 -4.8068358964 -1.7920938126 2.214324268 -4.9881403376 
-1.8953148049 2.3800598251 -5.1442721788 -1.9325266326 2.5204028889 -5.3477890193 -1.973129178 2.6634701459 -5.548744719 
-1.9865147688 2.7616205381 -5.7782819197 -2.0072616269 2.8605132642 -6.0069515429 -2.0326142165 2.9638917436 -6.2331597129 
-1.9920842053 3.0592208557 -6.4606892244 -1.9658829099 3.1812169213 -6.6773235986 -1.95489032 3.3115244098 -6.8903942944 
-1.9618163346 3.4463146723 -7.10083102 -1.9595558315 3.5807523934 -7.3115948434 -1.9591600912 3.7034011527 -7.5294414069 
-1.9922335507 3.8261433401 -7.744709848 -2.0235998482 3.9580476516 -7.9547512915 -2.053410198 4.0821397433 -8.16972221 
-2.0922570198 4.2101350542 -8.380928566 -2.0673262565 4.3390293584 -8.5936836256 -2.0611579752 4.4358891617 -8.8240748816 
-2.0457609566 4.5389463916 -9.0513239502 -2.0376118219 4.6474567449 -9.2763997037 -2.0620327306 4.7344755807 -9.5094905474 
-2.0678249667 4.7919692102 -9.7527207523 -2.0538188065 4.7894724803 -10.002315612 -2.061454029 4.7954964511 -10.25212637 
-2.0748719743 4.7792135014 -10.501234428 -2.0879807121 4.7450832286 -10.748546549 -2.1011430636 4.7103243177 -10.995768253 
-2.1002295418 4.7008537725 -11.245587136 -2.1048346881 4.6894878057 -11.495286169 -2.0641472069 4.6880886783 -11.741949039 
-2.0210511199 4.6768675797 -11.987950694 -1.9835084387 4.6483785121 -12.233468351 -1.9506827239 4.6230643942 -12.480007736 
-1.9004712217 4.6381689642 -12.724447211 -1.8375331244 4.6537107888 -12.96589544 -1.7745908329 4.6759472614 -13.206818265 
-1.7324654219 4.637703043 -13.450257845 -1.6671038275 4.5609504363 -13.679030438 -1.598399743 4.4811403079 -13.905768376 
-1.5362405788 4.3949975328 -14.132077148 -1.4802902991 4.3079524624 -14.359657292 -1.4132617365 4.2082396067 -14.578893508 
-1.3346237404 4.1025622853 -14.791374964 -1.2639046148 4.0215870271 -15.017077895 -1.1811068059 3.9440623254 -15.239865784 
-1.0986307142 3.8389919159 -15.45118995 -0.9637992344 3.7108445705 -15.618219079 -0.83607035007 3.5887696699 -15.795089231 
-0.67316557472 3.4694079904 -15.942448736 -0.49469270494 3.3540019539 -16.074087946 -0.32610371771 3.2396122859 -16.218976721 
-0.14820477506 3.1356714575 -16.360568636 0.012364935668 3.0233302117 -16.515800116 0.1549159304 2.9000749565 -16.680078405 
0.27000396814 2.7652117596 -16.856335778 0.3829086188 2.6314831379 -17.034855232 0.49747072388 2.4976228367 -17.212216287 
0.60083379182 2.4004242314 -17.418052405 0.66797056282 2.2936634265 -17.633910656 0.75017747883 2.1834571348 -17.842708636 
0.82913521304 2.0737203209 -18.053002496 0.84139766799 2.0604437881 -18.08156333 -0.5126230829 0.66576812132 -3.5400907975 
-0.52277406038 0.77956108233 -3.7624601292 -0.53449030145 0.89788545023 -3.982373916 -0.53515452505 1.0082199251 -4.2067081811 
-0.53644590475 1.1144897642 -4.4329935178 -0.53696454607 1.2507070137 -4.6426231721 -0.51878168185 1.3625180934 -4.8654856093 
-0.50273855675 1.4613674127 -5.0945520412 -0.49082816941 1.5488159746 -5.328455636 -0.53649707025 1.6336061495 -5.5591610277 
-0.58531137867 1.7180366746 -5.7893536638 -0.67092791921 1.7968155302 -6.0106310912 -0.74962718774 1.8695191762 -6.2365085027 
-0.83361798078 1.9305568324 -6.4639287111 -0.91700232593 1.9931029055 -6.6911621587 -0.9753928223 2.0369035191 -6.930268947 
-1.0475750197 2.0677300162 -7.1676282894 -1.1009443958 2.0963864931 -7.4101783173 -1.0913733021 2.1254249614 -7.6583015962 
-1.0949643175 2.1422303757 -7.9077102622 -1.0664266342 2.165504346 -8.1548653099 -1.1248934303 1.2712178784 -4.0456439831 
-1.3701105494 1.2938911888 -4.0025802454 -1.6157087444 1.3095406912 -3.9585732041 -1.8617989566 1.2971902892 -3.9162993943 
-2.1048102068 1.2871864009 -3.8584594899 -2.3536918581 1.2700404026 -3.8422133105 -2.6027259385 1.2509731012 -3.853097466 
-2.8484396668 1.2518422052 -3.8991844311 -3.0916583036 1.2465957369 -3.9567793032 -3.3338077351 1.2274596438 -4.0159186538 
-3.5641759617 1.2403219499 -4.1121737381 -3.7912733809 1.2235452575 -4.2153498243 -4.0204382622 1.2355273717 -4.3145460244 
-4.2478450942 1.2493184055 -4.4174826076 -4.4834828557 1.2739945955 -4.4972693924 -4.7217834282 1.3027450896 -4.567171082 
-4.9607669071 1.3311838138 -4.6348330046 -5.199558466 1.3700473821 -4.6978267701 -5.4302756926 1.4046385181 -4.7876767264 
-5.6506628044 1.4263130494 -4.9036928272 -5.8669179291 1.4821841882 -5.0156676629 -1.5694943891 1.9404801104 -4.6341551474 
-1.4895185985 2.1771164887 -4.6238063594 -1.381831314 2.3982210442 -4.5789039731 -1.2633369749 2.613011121 -4.5306928281 
-1.1462127147 2.8284302862 -4.4819435621 -1.0110186488 3.0229077887 -4.4019369025 -0.87475765502 3.2163027526 -4.3211202613 
-0.70885179817 3.3900448113 -4.2519180669 -0.54644443097 3.5633239055 -4.1738270778 -0.35505468441 3.7110359584 -4.1101787129 
-0.1483501848 3.8487343787 -4.0816761715 0.067808343634 3.9732436541 -4.0651555501 0.28749992486 4.0913120878 -4.0479667714 
0.50374755256 4.2143802933 -4.0236525716 0.73000447932 4.3146703998 -3.988301509 0.94938943915 4.4138568734 -3.9209792775 
1.1649049221 4.5245782177 -3.8593849555 1.3613181123 4.6701551205 -3.8071429788 1.5518888171 4.8233410947 -3.7550194358 
1.7445140987 4.9527028979 -3.6619548088 1.9520510821 5.0706612644 -3.5883375689 -1.9325266326 2.5204028889 -5.3477890193 
-2.0959306286 2.7087500879 -5.365801979 -2.2633102792 2.8933902522 -5.385602541 -2.4178782198 3.0885612485 -5.4083409222 
-2.5479432722 3.3001525355 -5.43684021 -2.6787178666 3.5102060499 -5.4725547247 -2.8107433098 3.7194501556 -5.5084181681 
-2.9413858908 3.9308341965 -5.5357915725 -3.0679742596 4.1429310387 -5.574396163 -3.2382620752 4.3194711085 -5.6227248669 
-3.4034421657 4.4981947511 -5.679938478 -3.5627383883 4.6713598955 -5.7644283958 -3.7260812147 4.8202216789 -5.8813013633 
-3.8851823596 4.9781299918 -5.9919891692 -4.0318882388 5.1192579924 -6.1371107474 -4.1776034972 5.267674107 -6.2758180666 
-4.3006385034 5.4063912843 -6.4435080543 -4.3993083167 5.5617470301 -6.612708705 -4.4888422999 5.7516090069 -6.7484882896 
-4.5691850661 5.9608949852 -6.8591427934 -4.6250139927 6.1476728782 -7.0152628647 -2.0326142165 2.9638917436 -6.2331597129 
-1.8379661322 2.9856981232 -6.3885193121 -1.6391598511 3.01010672 -6.5381197233 -1.4501474801 3.0433683747 -6.6983320385 
-1.259729815 3.1333976635 -6.8330014113 -1.0836211307 3.1947706356 -6.9994919203 -0.90834424086 3.2595978692 -7.1655504693 
-0.7571583047 3.3005064676 -7.3604075946 -0.60996519126 3.3440873206 -7.5577268704 -0.49002972453 3.3894289805 -7.7723419158 
-0.36913794691 3.4240836293 -7.988407261 -0.25986560906 3.4360709529 -8.212942025 -0.15574965957 3.4430170546 -8.4401239362 
-0.037148734201 3.3980559853 -8.65555913 0.11474077309 3.3523152081 -8.8487879034 0.25761539666 3.307527632 -9.0489900887 
0.37134473956 3.3170620605 -9.2714192487 0.45184428968 3.4066055838 -9.4905123337 0.52755006512 3.4859579188 -9.7151717258 
0.61963079677 3.5558990082 -9.9368232155 0.71155600796 3.6256716727 -10.158220968 -1.9618163346 3.4463146723 -7.10083102 
-2.0309726592 3.3358535308 -7.3141751996 -2.104616748 3.2322445112 -7.5294464686 -2.190188981 3.1546980797 -7.751175907 
-2.2976904794 3.0825969981 -7.9650563921 -2.3991063146 3.0081621014 -8.1810986901 -2.5152911443 2.932724715 -8.3892099249 
-2.6353777226 2.9151416721 -8.607773532 -2.7375207027 2.9036163259 -8.8356638083 -2.8064497636 2.8770738805 -9.0745032588 
-2.8451554793 2.8922226211 -9.3210238122 -2.8645235536 2.9469414014 -9.5641919285 -2.8916055665 2.9711691852 -9.8115369892 
-2.9352780296 2.950425028 -10.056817229 -2.9962578971 2.9862888521 -10.296598883 -3.0614373976 3.0026472426 -10.537397629 
-3.1480640416 3.0173237865 -10.77144981 -3.2331271899 3.0370317538 -11.005705774 -3.288509663 3.025893663 -11.249239601 
-3.320897827 3.0297427036 -11.497102853 -3.3208786737 3.0038642036 -11.745309351 -2.0235998482 3.9580476516 -7.9547512915 
-1.8641792939 4.1284428016 -8.0444763141 -1.703088157 4.2983186837 -8.1321793946 -1.5312487767 4.4435719007 -8.2411414537 
-1.3581433132 4.5892239683 -8.3475368188 -1.1862146091 4.7158958043 -8.4775166889 -1.0186464144 4.8089534404 -8.6380195752 
-0.86800983641 4.8930373924 -8.8189574385 -0.72884017182 4.9763139347 -9.0092120626 -0.59088419752 5.0655988889 -9.1976168027 
-0.45467165021 5.1541236562 -9.3876418208 -0.32760832179 5.2513809607 -9.5797249468 -0.20178605879 5.3528466093 -9.770443274 
-0.086646172337 5.4573309696 -9.9662131005 0.03316044533 5.5673355231 -10.15606929 0.1539268129 5.6761187869 -10.346021089 
0.26904779452 5.7614038547 -10.550895726 0.38126424888 5.8387279751 -10.76048687 0.52095386486 5.9122322598 -10.954352626 
0.65941290954 5.9812120167 -11.150747346 0.83217367741 6.082715558 -11.299200735 -2.0611579752 4.4358891617 -8.8240748816 
-2.2749039929 4.4474172946 -8.9532249573 -2.4981042812 4.4241463158 -9.0634070468 -2.7250734602 4.4038012478 -9.1662227557 
-2.9418091811 4.3703748547 -9.2862573487 -3.1667417949 4.3351481088 -9.3895259095 -3.3871943636 4.2952164277 -9.5004588882 
-3.6033343095 4.2456788972 -9.6159125883 -3.8152564157 4.1965541869 -9.7391026194 -4.0309626123 4.1245192607 -9.8429380958 
-4.2473437712 4.0832631956 -9.9611630135 -4.4655861722 4.0789046166 -10.083028748 -4.6819146229 4.0739012266 -10.208236445 
-4.9124821926 4.0776730423 -10.304799219 -5.1348570088 4.0688567566 -10.418692652 -5.3596202142 4.1049321565 -10.522037062 
[...]
CELL_DATA 451
SCALARS solution%20variable double
LOOKUP_TABLE default
7613.2893027 7371.2254619 7122.3737115 6864.5717606 6658.1234696 6444.02934 6222.6400708 5993.1454531 5810.4155559 
5620.8275826 5424.6866568 5221.2524949 5060.1004661 4892.8308148 4719.7084659 4540.0620933 4398.3877561 4251.2828178 
4098.9770088 3940.8655234 3816.6439174 3687.621431 3553.9971593 3415.2291789 3306.5384919 3193.6175951 3076.6390452 
2955.119258 2860.1603153 2761.4828303 2659.2364677 2552.9908222 2470.0980824 2383.9408904 2294.6492492 2201.8403964 
2129.4854374 2054.2649126 1976.292026 1895.2259276 1832.0145997 1766.2842874 1698.133944 1627.2588098 1571.9239896 
1514.3675211 1454.6763869 1392.5760153 1343.9670213 1293.3872697 1240.9137934 1186.2960929 1143.3652924 1098.6700547 
1052.2791264 1003.959328 965.74374956 925.92257014 884.55400485 841.40974834 806.99203226 771.06320477 733.67036226 
694.57699389 663.30526745 630.56599747 596.38851948 560.50680772 534.115368 506.53205441 477.78969474 447.65975694 
415.83341197 381.87699042 345.14961263 29.824996932 6732.7765186 6597.950527 6460.3516636 6319.7982963 6176.0881736 
6028.9949917 5878.2641906 5723.6077541 5564.6977126 5401.1579259 5232.553557 5058.377391 4878.0317568 4690.8041942 
4495.8339964 4292.0650614 4078.1775115 3852.485074 3612.7746039 668.58406612 5873.207084 5750.3930835 5624.9408034 
5496.6690474 5365.3750152 5230.8305156 5092.7772819 4950.9211132 4804.9244619 4654.3969298 4498.8829065 4337.8452202 
4170.6431082 3996.5018911 3814.4701775 3623.3576952 3421.6418125 3207.3210024 2977.6730296 595.59768443 5112.8731905 
5001.799646 4888.248127 4772.0411484 4652.9791254 4530.836319 4405.3557737 4276.2429198 4143.1573848 4005.7023594 
3863.4105618 3715.7253672 3561.9748968 3401.3355618 3232.7792884 3054.9944964 2866.2628573 2664.257212 2445.6885417 
528.0844271 4442.7769033 4342.9978799 4240.9203494 4136.3735094 4029.1644699 3919.0740375 3805.8514056 3689.2073803 
3568.805619 3444.2511155 3315.0747966 3180.712492 3040.475542 2893.5085788 2738.7268957 2574.7198671 2399.5947866 
2210.7089016 2004.172792 466.14698737 3854.0702685 3764.9929095 3673.8085741 3580.3556047 3484.4507469 3385.8848841 
3284.417624 3179.7703349 3071.6170515 2959.5723955 2843.1752187 2721.8659562 2594.9544535 2461.5728603 2320.6041283 
2170.5686244 2009.4342954 1834.275996 1640.6050976 409.76845461 3338.2159292 3259.1363403 3178.1465275 3095.0958158 
3009.812834 2922.1013069 2831.7346791 2738.4491476 2641.9344876 2541.8217496 2437.6664194 2328.9248077 2214.9200131 
2094.7912106 1967.4150402 1831.2776715 1684.2534502 1523.1901518 1343.0427694 358.81452763 2887.1145509 2817.2570773 
2745.6854302 2672.2611113 2596.8261458 2519.1990248 2439.1694909 2356.4917372 2270.8753871 2181.9732987 2089.364711 
1992.5313539 1890.8225578 1783.4024572 1669.1665842 1546.6028892 1413.5438693 1266.6828645 1100.5037263 313.04936818 
2493.1914248 2431.7458351 2368.7768001 2304.158606 2237.7475042 2169.3778767 2098.8572839 2025.959971 1950.4182002 
1871.9104509 1790.0449765 1704.3362747 1614.1703316 1518.7513089 1417.0159018 1307.4875944 1188.0094832 1055.2029612 
903.20224637 272.15153527 2149.4432839 2095.5962816 2040.408067 1983.7658378 1925.5403303 1865.5822596 1803.7177025 
1739.7420168 1673.4116811 1604.4331185 1532.4470146 1457.0056915 1377.5393619 1293.3037505 1203.2947206 1106.1002678 
999.62247951 880.49468811 742.6373283 235.72591935 1849.451806 1802.4120759 1754.2031745 1704.7249961 1653.8626048 
1601.4829806 1547.4307879 1491.5227776 1433.5402445 1373.2186423 1310.2329277 1244.1762661 1174.5280101 1100.6034936 
1021.4711694 935.80662932 841.60766039 735.58835019 611.6129553 203.32573813 1587.3674033 1546.3822295 1504.3893632 
1461.3009821 1417.0160662 1371.4174698 1324.3680999 1275.7058469 1225.236728 1172.7254067 1117.8817478 1060.3411698 
999.63489166 935.1428639 866.01068501 791.0119455 708.2723426 614.65702831 504.12019066 174.44798609 1357.8754337 
1322.2412842 1285.7512617 1248.3293794 1209.8880582 1170.3255298 1129.5224398 1087.3373308 1043.6005136 998.10556519 
950.59709889 900.7499266 848.14418726 792.22172655 732.21262946 667.00234923 594.86744574 512.87444244 415.19562396 
148.51015699 1156.1464762 1125.2137004 1093.569293 1061.1488154 1027.8778097 993.66953643 958.4215982 922.01038429 
884.28722748 845.07076919 804.1360448 761.19838204 715.88873694 667.7141411 615.99053331 559.71996269 497.34271755 
426.16101932 340.66455619 124.72725727 977.77345805 950.94638914 923.54425129 895.51211623 866.78627013 837.2922064 
806.94199085 775.63074097 743.23182516 709.59016142 674.51260528 637.75371248 598.99382303 557.80369918 513.58400219 
465.45349585 412.02013076 350.83732938 276.76566399 101.66028357 818.60096599 795.27476014 771.49660167 747.22286163 
722.40252231 696.97545295 670.87014212 644.00066151 616.26251548 587.5268312 557.63199605 526.37121871 493.47328079 
458.57127277 421.14862472 380.43827045 335.21284002 283.27408246 219.84758505 74.918320279 673.94080265 652.85129504 
631.378581 609.48464058 587.12404939 564.24206529 540.77206302 516.63202356 491.71961483 465.90510389 439.02080205 
410.84470764 381.0738848 349.27838033 314.81477873 276.64527696 232.89329791 179.42266635 69.212674288 536.12466966 
510.76448881 484.47135389 457.07624906 428.35701992 398.0128864 365.6207432 330.55422916 291.8173701 247.647051 
194.30229117 45.610050076 7698.2911153 7782.2810765 7865.4454199 7947.8107598 8029.4023649 8110.2442509 8190.3592663 
8269.7691695 8348.4947002 8426.5556449 8503.9708967 8580.7585106 8656.9357546 8732.5191566 8807.524548 8879.7243817 
8951.5094453 9022.7938459 9093.5898454 9163.9092417 9233.7633926 9303.1632388 9372.1193244 9427.9961771 9483.66879 
9539.0865462 9594.2542137 9649.1764277 9703.8576962 9758.302404 9812.514818 9844.3096648 9876.0890726 9907.8363774 
9939.5520772 9971.2366605 10002.890607 10034.514388 10066.108466 10066.107425 8942.420882 10155.515892 11178.970833 
11992.946056 
