# vtk DataFile Version 5.1
vtk output
ASCII
DATASET UNSTRUCTURED_GRID
POINTS 474 double
0 0 -3 -0.11344901018 0.17758382911 -3.1345113591 -0.25315847539 0.33878440002 -3.2648786912 
-0.38126193464 0.50363826191 -3.4024021726 -0.5126230829 0.66576812132 -3.5400907975 -0.65843420624 0.83063257984 -3.6586607204 
-0.82297351213 0.96639713451 -3.7890248355 -0.97532665543 1.1205572503 -3.9136168835 -1.1248934303 1.2712178784 -4.0456439831 
-1.260480867 1.4416481412 -4.1684021702 -1.3678821889 1.6074581306 -4.3216079256 -1.4660695894 1.784059061 -4.4688198332 
-1.5694943891 1.9404801104 -4.6341551474 -1.6843141616 2.0801145574 -4.8068358964 -1.7920938126 2.214324268 -4.9881403376 
-1.8953148049 2.3800598251 -5.1442721788 -1.9325266326 2.5204028889 -5.3477890193 -1.973129178 2.6634701459 -5.548744719 
-1.9865147688 2.7616205381 -5.7782819197 -2.0072616269 2.8605132642 -6.0069515429 -2.0326142165 2.9638917436 -6.2331597129 
-1.9920842053 3.0592208557 -6.4606892244 -1.9658829099 3.1812169213 -6.6773235986 -1.95489032 3.3115244098 -6.8903942944 
-1.9618163346 3.4463146723 -7.10083102 -1.9595558315 3.5807523934 -7.3115948434 -1.9591600912 3.7034011527 -7.5294414069 
-1.9922335507 3.8261433401 -7.744709848 -2.0235998482 3.9580476516 -7.9547512915 -2.053410198 4.0821397433 -8.16972221 
-2.0922570198 4.2101350542 -8.380928566 -2.0673262565 4.3390293584 -8.5936836256 -2.0611579752 4.4358891617 -8.8240748816 
-2.0457609566 4.5389463916 -9.0513239502 -2.0376118219 4.6474567449 -9.2763997037 -2.0620327306 4.7344755807 -9.5094905474 
-2.0678249667 4.7919692102 -9.7527207523 -2.0538188065 4.7894724803 -10.002315612 -2.061454029 4.7954964511 -10.25212637 
-2.0748719743 4.7792135014 -10.501234428 -2.0879807121 4.7450832286 -10.748546549 -2.1011430636 4.7103243177 -10.995768253 
-2.1002295418 4.7008537725 -11.245587136 -2.1048346881 4.6894878057 -11.495286169 -2.0641472069 4.6880886783 -11.741949039 
-2.0210511199 4.6768675797 -11.987950694 -1.9835084387 4.6483785121 -12.233468351 -1.9506827239 4.6230643942 -12.480007736 
-1.9004712217 4.6381689642 -12.724447211 -1.8375331244 4.6537107888 -12.96589544 -1.7745908329 4.6759472614 -13.206818265 
-1.7324654219 4.637703043 -13.450257845 -1.6671038275 4.5609504363 -13.679030438 -1.598399743 4.4811403079 -13.905768376 
-1.5362405788 4.3949975328 -14.132077148 -1.4802902991 4.3079524624 -14.359657292 -1.4132617365 4.2082396067 -14.578893508 
-1.3346237404 4.1025622853 -14.791374964 -1.2639046148 4.0215870271 -15.017077895 -1.1811068059 3.9440623254 -15.239865784 
-1.0986307142 3.8389919159 -15.45118995 -0.9637992344 3.7108445705 -15.618219079 -0.83607035007 3.5887696699 -15.795089231 
-0.67316557472 3.4694079904 -15.942448736 -0.49469270494 3.3540019539 -16.074087946 -0.32610371771 3.2396122859 -16.218976721 
-0.14820477506 3.1356714575 -16.360568636 0.012364935668 3.0233302117 -16.515800116 0.1549159304 2.9000749565 -16.680078405 
0.27000396814 2.7652117596 -16.856335778 0.3829086188 2.6314831379 -17.034855232 0.49747072388 2.4976228367 -17.212216287 
0.60083379182 2.4004242314 -17.418052405 0.66797056282 2.2936634265 -17.633910656 0.75017747883 2.1834571348 -17.842708636 
0.82913521304 2.0737203209 -18.053002496 0.84139766799 2.0604437881 -18.08156333 -0.5126230829 0.66576812132 -3.5400907975 
-0.52277406038 0.77956108233 -3.7624601292 -0.53449030145 0.89788545023 -3.982373916 -0.53515452505 1.0082199251 -4.2067081811 
-0.53644590475 1.1144897642 -4.4329935178 -0.53696454607 1.2507070137 -4.6426231721 -0.51878168185 1.3625180934 -4.8654856093 
-0.50273855675 1.4613674127 -5.0945520412 -0.49082816941 1.5488159746 -5.328455636 -0.53649707025 1.6336061495 -5.5591610277 
-0.58531137867 1.7180366746 -5.7893536638 -0.67092791921 1.7968155302 -6.0106310912 -0.74962718774 1.8695191762 -6.2365085027 
-0.83361798078 1.9305568324 -6.4639287111 -0.91700232593 1.9931029055 -6.6911621587 -0.9753928223 2.0369035191 -6.930268947 
-1.0475750197 2.0677300162 -7.1676282894 -1.1009443958 2.0963864931 -7.4101783173 -1.0913733021 2.1254249614 -7.6583015962 
-1.0949643175 2.1422303757 -7.9077102622 -1.0664266342 2.165504346 -8.1548653099 -1.1248934303 1.2712178784 -4.0456439831 
-1.3701105494 1.2938911888 -4.0025802454 -1.6157087444 1.3095406912 -3.9585732041 -1.8617989566 1.2971902892 -3.9162993943 
-2.1048102068 1.2871864009 -3.8584594899 -2.3536918581 1.2700404026 -3.8422133105 -2.6027259385 1.2509731012 -3.853097466 
-2.8484396668 1.2518422052 -3.8991844311 -3.0916583036 1.2465957369 -3.9567793032 -3.3338077351 1.2274596438 -4.0159186538 
-3.5641759617 1.2403219499 -4.1121737381 -3.7912733809 1.2235452575 -4.2153498243 -4.0204382622 1.2355273717 -4.3145460244 
-4.2478450942 1.2493184055 -4.4174826076 -4.4834828557 1.2739945955 -4.4972693924 -4.7217834282 1.3027450896 -4.567171082 
-4.9607669071 1.3311838138 -4.6348330046 -5.199558466 1.3700473821 -4.6978267701 -5.4302756926 1.4046385181 -4.7876767264 
-5.6506628044 1.4263130494 -4.9036928272 -5.8669179291 1.4821841882 -5.0156676629 -1.5694943891 1.9404801104 -4.6341551474 
-1.4895185985 2.1771164887 -4.6238063594 -1.381831314 2.3982210442 -4.5789039731 -1.2633369749 2.613011121 -4.5306928281 
-1.1462127147 2.8284302862 -4.4819435621 -1.0110186488 3.0229077887 -4.4019369025 -0.87475765502 3.2163027526 -4.3211202613 
-0.70885179817 3.3900448113 -4.2519180669 -0.54644443097 3.5633239055 -4.1738270778 -0.35505468441 3.7110359584 -4.1101787129 
-0.1483501848 3.8487343787 -4.0816761715 0.067808343634 3.9732436541 -4.0651555501 0.28749992486 4.0913120878 -4.0479667714 
0.50374755256 4.2143802933 -4.0236525716 0.73000447932 4.3146703998 -3.988301509 0.94938943915 4.4138568734 -3.9209792775 
1.1649049221 4.5245782177 -3.8593849555 1.3613181123 4.6701551205 -3.8071429788 1.5518888171 4.8233410947 -3.7550194358 
1.7445140987 4.9527028979 -3.6619548088 1.9520510821 5.0706612644 -3.5883375689 -1.9325266326 2.5204028889 -5.3477890193 
-2.0959306286 2.7087500879 -5.365801979 -2.2633102792 2.8933902522 -5.385602541 -2.4178782198 3.0885612485 -5.4083409222 
-2.5479432722 3.3001525355 -5.43684021 -2.6787178666 3.5102060499 -5.4725547247 -2.8107433098 3.7194501556 -5.5084181681 
-2.9413858908 3.9308341965 -5.5357915725 -3.0679742596 4.1429310387 -5.574396163 -3.2382620752 4.3194711085 -5.6227248669 
-3.4034421657 4.4981947511 -5.679938478 -3.5627383883 4.6713598955 -5.7644283958 -3.7260812147 4.8202216789 -5.8813013633 
-3.8851823596 4.9781299918 -5.9919891692 -4.0318882388 5.1192579924 -6.1371107474 -4.1776034972 5.267674107 -6.2758180666 
-4.3006385034 5.4063912843 -6.4435080543 -4.3993083167 5.5617470301 -6.612708705 -4.4888422999 5.7516090069 -6.7484882896 
-4.5691850661 5.9608949852 -6.8591427934 -4.6250139927 6.1476728782 -7.0152628647 -2.0326142165 2.9638917436 -6.2331597129 
-1.8379661322 2.9856981232 -6.3885193121 -1.6391598511 3.01010672 -6.5381197233 -1.4501474801 3.0433683747 -6.6983320385 
-1.259729815 3.1333976635 -6.8330014113 -1.0836211307 3.1947706356 -6.9994919203 -0.90834424086 3.2595978692 -7.1655504693 
-0.7571583047 3.3005064676 -7.3604075946 -0.60996519126 3.3440873206 -7.5577268704 -0.49002972453 3.3894289805 -7.7723419158 
-0.36913794691 3.4240836293 -7.988407261 -0.25986560906 3.4360709529 -8.212942025 -0.15574965957 3.4430170546 -8.4401239362 
-0.037148734201 3.3980559853 -8.65555913 0.11474077309 3.3523152081 -8.8487879034 0.25761539666 3.307527632 -9.0489900887 
0.37134473956 3.3170620605 -9.2714192487 0.45184428968 3.4066055838 -9.4905123337 0.52755006512 3.4859579188 -9.7151717258 
0.61963079677 3.5558990082 -9.9368232155 0.71155600796 3.6256716727 -10.158220968 -1.9618163346 3.4463146723 -7.10083102 
-2.0309726592 3.3358535308 -7.3141751996 -2.104616748 3.2322445112 -7.5294464686 -2.190188981 3.1546980797 -7.751175907 
-2.2976904794 3.0825969981 -7.9650563921 -2.3991063146 3.0081621014 -8.1810986901 -2.5152911443 2.932724715 -8.3892099249 
-2.6353777226 2.9151416721 -8.607773532 -2.7375207027 2.9036163259 -8.8356638083 -2.8064497636 2.8770738805 -9.0745032588 
-2.8451554793 2.8922226211 -9.3210238122 -2.8645235536 2.9469414014 -9.5641919285 -2.8916055665 2.9711691852 -9.8115369892 
-2.9352780296 2.950425028 -10.056817229 -2.9962578971 2.9862888521 -10.296598883 -3.0614373976 3.0026472426 -10.537397629 
-3.1480640416 3.0173237865 -10.77144981 -3.2331271899 3.0370317538 -11.005705774 -3.288509663 3.025893663 -11.249239601 
-3.320897827 3.0297427036 -11.497102853 -3.3208786737 3.0038642036 -11.745309351 -2.0235998482 3.9580476516 -7.9547512915 
-1.8641792939 4.1284428016 -8.0444763141 -1.703088157 4.2983186837 -8.1321793946 -1.5312487767 4.4435719007 -8.2411414537 
-1.3581433132 4.5892239683 -8.3475368188 -1.1862146091 4.7158958043 -8.4775166889 -1.0186464144 4.8089534404 -8.6380195752 
-0.86800983641 4.8930373924 -8.8189574385 -0.72884017182 4.9763139347 -9.0092120626 -0.59088419752 5.0655988889 -9.1976168027 
-0.45467165021 5.1541236562 -9.3876418208 -0.32760832179 5.2513809607 -9.5797249468 -0.20178605879 5.3528466093 -9.770443274 
-0.086646172337 5.4573309696 -9.9662131005 0.03316044533 5.5673355231 -10.15606929 0.1539268129 5.6761187869 -10.346021089 
0.26904779452 5.7614038547 -10.550895726 0.38126424888 5.8387279751 -10.76048687 0.52095386486 5.9122322598 -10.954352626 
0.65941290954 5.9812120167 -11.150747346 0.83217367741 6.082715558 -11.299200735 -2.0611579752 4.4358891617 -8.8240748816 
-2.2749039929 4.4474172946 -8.9532249573 -2.4981042812 4.4241463158 -9.0634070468 -2.7250734602 4.4038012478 -9.1662227557 
-2.9418091811 4.3703748547 -9.2862573487 -3.1667417949 4.3351481088 -9.3895259095 -3.3871943636 4.2952164277 -9.5004588882 
-3.6033343095 4.2456788972 -9.6159125883 -3.8152564157 4.1965541869 -9.7391026194 -4.0309626123 4.1245192607 -9.8429380958 
-4.2473437712 4.0832631956 -9.9611630135 -4.4655861722 4.0789046166 -10.083028748 -4.6819146229 4.0739012266 -10.208236445 
-4.9124821926 4.0776730423 -10.304799219 -5.1348570088 4.0688567566 -10.418692652 -5.3596202142 4.1049321565 -10.522037062 
[...]
CELL_DATA 451
SCALARS solution%20variable double
LOOKUP_TABLE default
7613.7213555 7371.6507541 7122.7920723 6864.9830334 6658.5288373 6444.4286384 6223.0331427 5993.5321566 5810.7971495 
5621.2039261 5425.0576147 5221.6179513 5060.4617409 4893.1878025 4720.061064 4540.4102252 4398.7327905 4251.6246978 
4099.3156778 3941.2009598 3816.9775307 3687.9532284 3554.3271461 3415.5574074 3306.8664092 3193.9452918 3076.9666071 
2955.4468341 2860.4893913 2761.8136033 2659.5691259 2553.3256387 2470.4365821 2384.2834038 2294.9960921 2202.1919971 
2129.8433522 2054.6296346 1976.6640259 1895.6058229 1832.4039397 1766.6837566 1698.5441927 1627.680677 1572.3589213 
1514.8164131 1455.140083 1393.0555975 1344.4636098 1293.9019669 1241.4476216 1186.8503674 1143.9403557 1099.267152 
1052.8993807 1004.6042086 966.41190644 926.61524687 885.27227038 842.15506771 807.75925147 771.85307123 734.48336988 
695.41402696 664.15563836 631.42902907 597.26317254 561.39229412 535.01008424 507.43370333 478.69536013 448.56643247 
416.73812038 382.77703339 346.04312437 29.868166091 6733.1847778 6598.3556233 6460.7534398 6320.1965938 6176.4828325 
6029.3858518 5878.6510916 5723.9905372 5565.0762216 5401.5320091 5232.9230704 5058.7422018 4878.3917488 4691.1592763 
4496.1841138 4292.4102138 4078.51778 3852.8206658 3613.1059262 668.62032765 5873.5906269 5750.7732923 5625.3174962 
5497.0420394 5365.7441184 5231.1955396 5093.138034 4951.2773996 4805.2760884 4654.7437041 4499.2246401 4338.1817323 
4170.9742312 3996.8274787 3814.7901176 3623.6719303 3421.9503721 3207.6240602 2977.971005 595.63366714 5113.2353916 
5002.1583926 4888.6032113 4772.3923576 4653.3262414 4531.1791189 4405.6940298 4276.5764 4143.4858534 4006.0255782 
3863.7282921 3716.0373729 3562.2809492 3401.6354474 3233.0728219 3055.2815423 2866.5433673 2664.5312941 2445.9565943 
528.12019045 4443.1217362 4343.3391879 4241.2578969 4136.7070536 4029.4937606 3919.398817 3806.1714082 3689.5223327 
3569.11524 3444.5551169 3315.3728839 3181.0043668 3040.7609057 2893.787139 2738.9983782 2574.9840372 2399.8514892 
2210.9581405 2004.4148992 466.18269032 3854.4024085 3765.3214985 3674.1333457 3580.6762833 3484.7670471 3386.1965099 
3284.7242686 3180.0716796 3071.9127653 2959.862135 2843.458628 2722.1426674 2595.2240889 2461.8350372 2320.8584678 
2170.8147711 2009.6719563 1834.5050264 1640.8257045 409.80438817 3338.5409039 3259.4577738 3178.4641183 3095.4092506 
3010.1217871 2922.405439 2832.0336363 2738.7425601 2642.2219682 2542.1028927 2437.9407995 2329.1919785 2215.1795073 
2095.0425417 1967.6577077 1831.5111756 1684.4773265 1523.4040572 1343.246713 358.85115288 2887.4389515 2817.5779757 
2746.002482 2672.5739577 2597.1344125 2519.5023203 2439.467405 2356.7838391 2271.1612232 2182.25239 2089.6365504 
1992.7954034 1891.0782451 1783.649174 1669.4036864 1546.829704 1413.759721 1266.8871521 1100.696169 313.08735435 
2493.5231861 2432.0741649 2369.1012991 2304.4788571 2238.0630709 2169.6883015 2099.1620856 2026.2586421 1950.7102041 
1872.1952174 1790.3218979 1704.6047001 1614.4295607 1519.0005854 1417.2544066 1307.7144433 1188.2237377 1055.4036875 
903.38875644 272.19183292 2149.7920162 2095.941703 2040.7497045 1984.1031962 1925.8728906 1865.9094758 1804.0389994 
1740.0567856 1673.7192755 1604.7328492 1532.7381428 1457.2874204 1377.8108264 1293.564005 1203.5427234 1106.3348652 
999.84239545 880.6985666 742.82393364 235.7698198 1849.8291515 1802.7863393 1754.5737813 1705.0913439 1654.2240604 
1601.8388769 1547.78042 1491.8653981 1433.8750575 1373.5447962 1310.5495058 1244.4822752 1174.8223644 1100.8849956 
1021.7384825 936.05824449 841.84187631 735.80323896 611.80650424 203.37500669 1587.7872895 1546.7994775 1504.8032559 
1461.7107655 1417.420946 1371.8166072 1324.7606065 1276.0907786 1225.6130768 1173.0920911 1118.2376002 1060.6849197 
999.9651436 935.45808911 866.30916332 791.29170919 708.53109934 614.89207064 504.32841225 174.50491341 1358.3540987 
1322.7182017 1286.2255127 1248.7999944 1210.3540126 1170.7857383 1129.9757498 1087.7825139 1044.0362553 998.53045128 
951.00962594 901.14845591 848.52691486 792.58664164 732.5574549 667.32445399 595.16371291 513.141075 415.42795412 
148.57775622 1156.7018254 1125.7690561 1094.1234506 1061.7004969 1028.425658 994.21210755 958.95738757 922.53778474 
884.80451581 845.57608891 804.62738359 761.67354154 716.34529136 668.1493786 616.40137016 560.10281224 497.69328136 
426.4739426 340.93291352 124.80925907 978.42319809 951.5996529 924.19948753 896.16766639 867.44036002 837.94293625 
807.5873233 776.26848638 743.85962305 710.20545686 675.11261789 638.33539482 599.55380303 558.33819773 514.08871045 
465.92338344 412.44912807 351.21776778 277.0872825 101.76071272 819.35924464 796.04439146 772.27560206 748.0090662 
723.19357082 697.76877357 671.66293249 644.78986597 617.04479742 588.2985383 558.38911561 527.10931835 494.18742697 
459.25591451 421.79741993 381.04381254 335.76619977 283.76398724 220.25894832 75.036433222 674.80144751 653.73369019 
632.28020401 610.40263631 588.05519829 565.18274748 541.71821671 517.57909607 492.6625033 466.8380815 439.93742259 
411.73767692 381.93487856 350.09777098 315.58119597 277.34483751 233.50809345 179.92731031 69.387718699 537.0095769 
511.64494586 485.34279546 457.93362985 429.19474208 398.82470324 366.39962831 331.29219735 292.50524611 248.27428499 
194.85783394 45.706239583 7698.7255386 7782.717693 7865.8840564 7948.2512466 8029.8445359 8110.6879438 8190.804322 
8270.2154323 8348.9420175 8427.0038672 8504.4198776 8581.2081065 8657.3858248 8732.9695632 8807.9751556 8880.1751459 
8951.9602281 9023.2445166 9094.0402759 9164.3593061 9234.2129677 9303.6122034 9372.5675597 9428.4441453 9484.1163563 
9539.5335813 9594.7005904 9649.6220211 9704.3023833 9758.746064 9812.9573321 9844.7518916 9876.5308748 9908.2776207 
9939.9926284 9971.6763879 10003.329381 10034.952079 10066.544947 10066.543912 8942.8662045 10155.928838 11179.355123 
11993.304113 
