# vtk DataFile Version 5.1
vtk output
ASCII
DATASET UNSTRUCTURED_GRID
POINTS 474 double
0 0 -3 -0.11344901018 0.17758382911 -3.1345113591 -0.25315847539 0.33878440002 -3.2648786912 
-0.38126193464 0.50363826191 -3.4024021726 -0.5126230829 0.66576812132 -3.5400907975 -0.65843420624 0.83063257984 -3.6586607204 
-0.82297351213 0.96639713451 -3.7890248355 -0.97532665543 1.1205572503 -3.9136168835 -1.1248934303 1.2712178784 -4.0456439831 
-1.260480867 1.4416481412 -4.1684021702 -1.3678821889 1.6074581306 -4.3216079256 -1.4660695894 1.784059061 -4.4688198332 
-1.5694943891 1.9404801104 -4.6341551474 -1.6843141616 2.0801145574 -4.8068358964 -1.7920938126 2.214324268 -4.9881403376 
-1.8953148049 2.3800598251 -5.1442721788 -1.9325266326 2.5204028889 -5.3477890193 -1.973129178 2.6634701459 -5.548744719 
-1.9865147688 2.7616205381 -5.7782819197 -2.0072616269 2.8605132642 -6.0069515429 -2.0326142165 2.9638917436 -6.2331597129 
-1.9920842053 3.0592208557 -6.4606892244 -1.9658829099 3.1812169213 -6.6773235986 -1.95489032 3.3115244098 -6.8903942944 
-1.9618163346 3.4463146723 -7.10083102 -1.9595558315 3.5807523934 -7.3115948434 -1.9591600912 3.7034011527 -7.5294414069 
-1.9922335507 3.8261433401 -7.744709848 -2.0235998482 3.9580476516 -7.9547512915 -2.053410198 4.0821397433 -8.16972221 
-2.0922570198 4.2101350542 -8.380928566 -2.0673262565 4.3390293584 -8.5936836256 -2.0611579752 4.4358891617 -8.8240748816 
-2.0457609566 4.5389463916 -9.0513239502 -2.0376118219 4.6474567449 -9.2763997037 -2.0620327306 4.7344755807 -9.5094905474 
-2.0678249667 4.7919692102 -9.7527207523 -2.0538188065 4.7894724803 -10.002315612 -2.061454029 4.7954964511 -10.25212637 
-2.0748719743 4.7792135014 -10.501234428 -2.0879807121 4.7450832286 -10.748546549 -2.1011430636 4.7103243177 -10.995768253 
-2.1002295418 4.7008537725 -11.245587136 -2.1048346881 4.6894878057 -11.495286169 -2.0641472069 4.6880886783 -11.741949039 
-2.0210511199 4.6768675797 -11.987950694 -1.9835084387 4.6483785121 -12.233468351 -1.9506827239 4.6230643942 -12.480007736 
-1.9004712217 4.6381689642 -12.724447211 -1.8375331244 4.6537107888 -12.96589544 -1.7745908329 4.6759472614 -13.206818265 
-1.7324654219 4.637703043 -13.450257845 -1.6671038275 4.5609504363 -13.679030438 -1.598399743 4.4811403079 -13.905768376 
-1.5362405788 4.3949975328 -14.132077148 -1.4802902991 4.3079524624 -14.359657292 -1.4132617365 4.2082396067 -14.578893508 
-1.3346237404 4.1025622853 -14.791374964 -1.2639046148 4.0215870271 -15.017077895 -1.1811068059 3.9440623254 -15.239865784 
-1.0986307142 3.8389919159 -15.45118995 -0.9637992344 3.7108445705 -15.618219079 -0.83607035007 3.5887696699 -15.795089231 
-0.67316557472 3.4694079904 -15.942448736 -0.49469270494 3.3540019539 -16.074087946 -0.32610371771 3.2396122859 -16.218976721 
-0.14820477506 3.1356714575 -16.360568636 0.012364935668 3.0233302117 -16.515800116 0.1549159304 2.9000749565 -16.680078405 
0.27000396814 2.7652117596 -16.856335778 0.3829086188 2.6314831379 -17.034855232 0.49747072388 2.4976228367 -17.212216287 
0.60083379182 2.4004242314 -17.418052405 0.66797056282 2.2936634265 -17.633910656 0.75017747883 2.1834571348 -17.842708636 
0.82913521304 2.0737203209 -18.053002496 0.84139766799 2.0604437881 -18.08156333 -0.5126230829 0.66576812132 -3.5400907975 
-0.52277406038 0.77956108233 -3.7624601292 -0.53449030145 0.89788545023 -3.982373916 -0.53515452505 1.0082199251 -4.2067081811 
-0.53644590475 1.1144897642 -4.4329935178 -0.53696454607 1.2507070137 -4.6426231721 -0.51878168185 1.3625180934 -4.8654856093 
-0.50273855675 1.4613674127 -5.0945520412 -0.49082816941 1.5488159746 -5.328455636 -0.53649707025 1.6336061495 -5.5591610277 
-0.58531137867 1.7180366746 -5.7893536638 -0.67092791921 1.7968155302 -6.0106310912 -0.74962718774 1.8695191762 -6.2365085027 
-0.83361798078 1.9305568324 -6.4639287111 -0.91700232593 1.9931029055 -6.6911621587 -0.9753928223 2.0369035191 -6.930268947 
-1.0475750197 2.0677300162 -7.1676282894 -1.1009443958 2.0963864931 -7.4101783173 -1.0913733021 2.1254249614 -7.6583015962 
-1.0949643175 2.1422303757 -7.9077102622 -1.0664266342 2.165504346 -8.1548653099 -1.1248934303 1.2712178784 -4.0456439831 
-1.3701105494 1.2938911888 -4.0025802454 -1.6157087444 1.3095406912 -3.9585732041 -1.8617989566 1.2971902892 -3.9162993943 
-2.1048102068 1.2871864009 -3.8584594899 -2.3536918581 1.2700404026 -3.8422133105 -2.6027259385 1.2509731012 -3.853097466 
-2.8484396668 1.2518422052 -3.8991844311 -3.0916583036 1.2465957369 -3.9567793032 -3.3338077351 1.2274596438 -4.0159186538 
-3.5641759617 1.2403219499 -4.1121737381 -3.7912733809 1.2235452575 -4.2153498243 -4.0204382622 1.2355273717 -4.3145460244 
-4.2478450942 1.2493184055 -4.4174826076 -4.4834828557 1.2739945955 -4.4972693924 -4.7217834282 1.3027450896 -4.567171082 
-4.9607669071 1.3311838138 -4.6348330046 -5.199558466 1.3700473821 -4.6978267701 -5.4302756926 1.4046385181 -4.7876767264 
-5.6506628044 1.4263130494 -4.9036928272 -5.8669179291 1.4821841882 -5.0156676629 -1.5694943891 1.9404801104 -4.6341551474 
-1.4895185985 2.1771164887 -4.6238063594 -1.381831314 2.3982210442 -4.5789039731 -1.2633369749 2.613011121 -4.5306928281 
-1.1462127147 2.8284302862 -4.4819435621 -1.0110186488 3.0229077887 -4.4019369025 -0.87475765502 3.2163027526 -4.3211202613 
-0.70885179817 3.3900448113 -4.2519180669 -0.54644443097 3.5633239055 -4.1738270778 -0.35505468441 3.7110359584 -4.1101787129 
-0.1483501848 3.8487343787 -4.0816761715 0.067808343634 3.9732436541 -4.0651555501 0.28749992486 4.0913120878 -4.0479667714 
0.50374755256 4.2143802933 -4.0236525716 0.73000447932 4.3146703998 -3.988301509 0.94938943915 4.4138568734 -3.9209792775 
1.1649049221 4.5245782177 -3.8593849555 1.3613181123 4.6701551205 -3.8071429788 1.5518888171 4.8233410947 -3.7550194358 
1.7445140987 4.9527028979 -3.6619548088 1.9520510821 5.0706612644 -3.5883375689 -1.9325266326 2.5204028889 -5.3477890193 
-2.0959306286 2.7087500879 -5.365801979 -2.2633102792 2.8933902522 -5.385602541 -2.4178782198 3.0885612485 -5.4083409222 
-2.5479432722 3.3001525355 -5.43684021 -2.6787178666 3.5102060499 -5.4725547247 -2.8107433098 3.7194501556 -5.5084181681 
-2.9413858908 3.9308341965 -5.5357915725 -3.0679742596 4.1429310387 -5.574396163 -3.2382620752 4.3194711085 -5.6227248669 
-3.4034421657 4.4981947511 -5.679938478 -3.5627383883 4.6713598955 -5.7644283958 -3.7260812147 4.8202216789 -5.8813013633 
-3.8851823596 4.9781299918 -5.9919891692 -4.0318882388 5.1192579924 -6.1371107474 -4.1776034972 5.267674107 -6.2758180666 
-4.3006385034 5.4063912843 -6.4435080543 -4.3993083167 5.5617470301 -6.612708705 -4.4888422999 5.7516090069 -6.7484882896 
-4.5691850661 5.9608949852 -6.8591427934 -4.6250139927 6.1476728782 -7.0152628647 -2.0326142165 2.9638917436 -6.2331597129 
-1.8379661322 2.9856981232 -6.3885193121 -1.6391598511 3.01010672 -6.5381197233 -1.4501474801 3.0433683747 -6.6983320385 
-1.259729815 3.1333976635 -6.8330014113 -1.0836211307 3.1947706356 -6.9994919203 -0.90834424086 3.2595978692 -7.1655504693 
-0.7571583047 3.3005064676 -7.3604075946 -0.60996519126 3.3440873206 -7.5577268704 -0.49002972453 3.3894289805 -7.7723419158 
-0.36913794691 3.4240836293 -7.988407261 -0.25986560906 3.4360709529 -8.212942025 -0.15574965957 3.4430170546 -8.4401239362 
-0.037148734201 3.3980559853 -8.65555913 0.11474077309 3.3523152081 -8.8487879034 0.25761539666 3.307527632 -9.0489900887 
0.37134473956 3.3170620605 -9.2714192487 0.45184428968 3.4066055838 -9.4905123337 0.52755006512 3.4859579188 -9.7151717258 
0.61963079677 3.5558990082 -9.9368232155 0.71155600796 3.6256716727 -10.158220968 -1.9618163346 3.4463146723 -7.10083102 
-2.0309726592 3.3358535308 -7.3141751996 -2.104616748 3.2322445112 -7.5294464686 -2.190188981 3.1546980797 -7.751175907 
-2.2976904794 3.0825969981 -7.9650563921 -2.3991063146 3.0081621014 -8.1810986901 -2.5152911443 2.932724715 -8.3892099249 
-2.6353777226 2.9151416721 -8.607773532 -2.7375207027 2.9036163259 -8.8356638083 -2.8064497636 2.8770738805 -9.0745032588 
-2.8451554793 2.8922226211 -9.3210238122 -2.8645235536 2.9469414014 -9.5641919285 -2.8916055665 2.9711691852 -9.8115369892 
-2.9352780296 2.950425028 -10.056817229 -2.9962578971 2.9862888521 -10.296598883 -3.0614373976 3.0026472426 -10.537397629 
-3.1480640416 3.0173237865 -10.77144981 -3.2331271899 3.0370317538 -11.005705774 -3.288509663 3.025893663 -11.249239601 
-3.320897827 3.0297427036 -11.497102853 -3.3208786737 3.0038642036 -11.745309351 -2.0235998482 3.9580476516 -7.9547512915 
-1.8641792939 4.1284428016 -8.0444763141 -1.703088157 4.2983186837 -8.1321793946 -1.5312487767 4.4435719007 -8.2411414537 
-1.3581433132 4.5892239683 -8.3475368188 -1.1862146091 4.7158958043 -8.4775166889 -1.0186464144 4.8089534404 -8.6380195752 
-0.86800983641 4.8930373924 -8.8189574385 -0.72884017182 4.9763139347 -9.0092120626 -0.59088419752 5.0655988889 -9.1976168027 
-0.45467165021 5.1541236562 -9.3876418208 -0.32760832179 5.2513809607 -9.5797249468 -0.20178605879 5.3528466093 -9.770443274 
-0.086646172337 5.4573309696 -9.9662131005 0.03316044533 5.5673355231 -10.15606929 0.1539268129 5.6761187869 -10.346021089 
0.26904779452 5.7614038547 -10.550895726 0.38126424888 5.8387279751 -10.76048687 0.52095386486 5.9122322598 -10.954352626 
0.65941290954 5.9812120167 -11.150747346 0.83217367741 6.082715558 -11.299200735 -2.0611579752 4.4358891617 -8.8240748816 
-2.2749039929 4.4474172946 -8.9532249573 -2.4981042812 4.4241463158 -9.0634070468 -2.7250734602 4.4038012478 -9.1662227557 
-2.9418091811 4.3703748547 -9.2862573487 -3.1667417949 4.3351481088 -9.3895259095 -3.3871943636 4.2952164277 -9.5004588882 
-3.6033343095 4.2456788972 -9.6159125883 -3.8152564157 4.1965541869 -9.7391026194 -4.0309626123 4.1245192607 -9.8429380958 
-4.2473437712 4.0832631956 -9.9611630135 -4.4655861722 4.0789046166 -10.083028748 -4.6819146229 4.0739012266 -10.208236445 
-4.9124821926 4.0776730423 -10.304799219 -5.1348570088 4.0688567566 -10.418692652 -5.3596202142 4.1049321565 -10.522037062 
[...]
CELL_DATA 451
SCALARS solution%20variable double
LOOKUP_TABLE default
7614.9694156 7372.8792899 7124.0005906 6866.1710818 6659.6998332 6445.5821081 6224.1686324 5994.649257 5811.8994968 
5622.2911154 5426.1292553 5222.6737091 5061.5054294 4894.2191181 4721.0797115 4541.4159839 4399.7296157 4252.6124258 
4100.2941465 3942.1701081 3817.9414317 3688.9119046 3555.280614 3416.50582 3307.8139485 3194.8922218 3077.9131766 
2956.3934765 2861.4404005 2762.769551 2660.5305575 2554.2933454 2471.4149719 2385.2734331 2295.9986753 2203.2083737 
2130.8780192 2055.6840179 1977.7394861 1896.704145 1833.5295981 1767.8387277 1699.7303534 1628.9004491 1573.6164739 
1516.1143288 1456.4807916 1394.4422155 1345.8993564 1295.3900106 1242.9908981 1188.4526538 1145.6026129 1100.9929451 
1054.6919186 1006.467691 968.34241537 928.61632014 887.34693796 844.30748924 809.97464079 774.13352222 736.83024194 
697.82978894 666.60987182 633.91975878 599.7873807 563.94767904 537.59214279 510.0358167 481.3091364 451.18322426 
419.34936612 385.37497017 348.62236395 29.992449814 6734.3641212 6599.5258304 6461.9140568 6321.3471624 6177.6228914 
6030.5149378 5879.7687422 5725.0962936 5566.1696326 5402.6126372 5233.9904993 5059.7960479 4879.4316772 4692.1850235 
4497.195522 4293.4072818 4079.5007427 3853.7901218 3614.0630514 668.72507056 5874.6985977 5751.8716318 5626.4056796 
5498.1195326 5366.8103788 5232.2500168 5094.1801719 4952.3066383 4806.2918675 4655.7454676 4500.2118439 4339.1538545 
4171.9307877 3997.7680475 3815.714375 3624.5797098 3422.8417598 3208.4995579 2978.8318239 595.73760703 5114.2817455 
5003.1947675 4889.6290069 4773.406959 4654.3290191 4532.1694291 4406.6712146 4277.5397892 4144.4347662 4006.9593268 
3864.6461871 3716.9387325 3563.1651128 3402.5017987 3233.9208261 3056.1108078 2867.3537552 2665.3231167 2446.7310028 
528.2235002 4444.1179644 4344.3252332 4242.2330785 4137.6706701 4030.4450896 3920.3371139 3807.0959059 3690.4322416 
3570.0097481 3445.4333915 3316.2340747 3181.8476121 3041.5853429 2894.5919239 2739.7827191 2575.7472564 2400.5931391 
2211.6782323 2005.1143924 466.28583072 3855.3620332 3766.2708638 3675.0716824 3581.6027952 3485.6809096 3387.0968685 
3285.6102364 3180.9423362 3072.7671549 2960.6992657 2844.2774714 2722.942161 2596.0031421 2462.5925442 2321.593335 
2171.5259717 2010.3586445 1835.1667851 1641.463132 409.90820213 3339.4799152 3260.3865536 3179.3817952 3096.31492 
3011.0145078 2923.2842308 2832.8974766 2739.5903805 2643.0526504 2542.9152649 2438.7336327 2329.9639833 2215.929334 
2095.7687845 1968.3589214 1832.1859166 1685.1242537 1524.0221804 1343.8360591 358.95697554 2888.3764183 2818.5053231 
2746.9187149 2673.4780392 2598.0252608 2520.3788043 2440.3283396 2357.6279795 2271.9872586 2183.0589366 2090.4221431 
1993.5584873 1891.8171672 1784.3621768 1670.0889091 1547.4852034 1414.3835453 1267.4775658 1101.2523621 313.19712339 
2494.4820654 2433.0231288 2370.0391933 2305.4044761 2238.9751536 2170.5855251 2100.0430596 2027.1219001 1951.5541947 
1873.0182933 1791.1223027 1705.3805529 1615.1788381 1519.7211016 1417.9437954 1308.3701497 1188.8430502 1055.9839091 
903.92790084 272.30830004 2150.8001057 2096.9402264 2041.7372941 1985.078421 1926.8342496 1866.8553912 1804.9678077 
1740.9667276 1674.6084833 1605.5993305 1533.5797622 1458.1018756 1378.5956184 1294.3164017 1204.2597165 1107.0131236 
1000.4782375 881.28805027 743.36349285 235.89672853 1850.9201102 1803.8683952 1755.6452732 1706.1505296 1655.2691089 
1602.8678593 1548.7912981 1492.8560106 1434.8431033 1374.4878131 1311.4648438 1245.3670624 1175.6734628 1101.6989426 
1022.5114152 936.78580117 842.51913996 736.42463865 612.36622607 203.51745023 1589.0013475 1548.0059208 1506.0000103 
1462.8956505 1418.5916648 1372.9707343 1325.8955738 1277.2038568 1226.7013534 1174.1524419 1119.2666528 1061.6790064 
1000.9202377 936.36972177 867.17236601 792.10079756 709.27945095 615.57186408 504.93067631 174.66952086 1359.738082 
1324.0971479 1287.5967633 1250.1607447 1211.7012989 1172.1164215 1131.2864967 1089.0697722 1045.2962237 999.75904077 
952.20248957 902.30085592 849.63363609 793.64187135 733.55461097 668.25593201 596.02050534 513.91221079 416.09995136 
148.77320785 1158.3072284 1127.374485 1095.7254203 1063.2953114 1030.0093925 995.78058638 960.50626045 924.06240532 
886.29990284 847.03687648 806.047756 763.04714618 717.66511904 669.40759437 617.58906541 561.20962667 498.70680014 
427.37870318 341.7089263 125.04626872 980.30066915 953.48724555 926.0927144 898.06173117 869.33013352 839.82292791 
809.45164677 778.11081703 745.67314482 711.98279409 676.84574604 640.01552052 601.17119809 559.88196164 515.54641658 
467.28052617 413.6882077 352.31667911 278.01646171 102.05066234 821.54873569 798.26628781 774.5241604 750.2780244 
725.47610799 700.05746404 673.94969176 647.06588607 619.30046773 590.52334632 560.57151903 529.23657503 496.24536135 
461.22858384 423.66661585 382.78827655 337.36030951 285.17540581 221.44443046 75.376415382 677.28425724 656.2780979 
634.87888044 613.04730522 590.73654797 567.89032991 544.44033096 520.30265052 495.37284867 469.5188022 442.57006646 
414.30138998 384.40588663 352.44860073 317.77942103 279.35088011 235.2709115 181.3745673 69.889068647 539.56298995 
514.18522456 487.85679545 460.40683609 431.61106216 401.16619273 368.64611774 333.42078298 294.48963583 250.08429348 
196.46196929 45.983255135 7699.9804449 7783.9789337 7867.1511306 7949.5236644 8031.1218181 8111.9696213 8192.0899354 
8271.5045318 8350.2341626 8428.2986262 8505.7168275 8582.5068327 8658.6859209 8734.2706307 8809.2768039 8881.4772463 
8953.2623825 9024.5463475 9095.341413 9165.6593862 9235.5116343 9304.9091071 9373.8623575 9429.7381714 9485.4092218 
9540.8249127 9595.9900206 9650.9091888 9705.5869336 9760.0276479 9814.2356066 9846.029336 9877.8070934 9909.5522249 
9941.2652337 9972.9466142 10004.596852 10036.216424 10067.805798 10067.804781 8944.1525888 10157.121714 11180.465236 
11994.33846 
