# vtk DataFile Version 5.1
vtk output
ASCII
DATASET UNSTRUCTURED_GRID
POINTS 474 double
0 0 -3 -0.11344901018 0.17758382911 -3.1345113591 -0.25315847539 0.33878440002 -3.2648786912 
-0.38126193464 0.50363826191 -3.4024021726 -0.5126230829 0.66576812132 -3.5400907975 -0.65843420624 0.83063257984 -3.6586607204 
-0.82297351213 0.96639713451 -3.7890248355 -0.97532665543 1.1205572503 -3.9136168835 -1.1248934303 1.2712178784 -4.0456439831 
-1.260480867 1.4416481412 -4.1684021702 -1.3678821889 1.6074581306 -4.3216079256 -1.4660695894 1.784059061 -4.4688198332 
-1.5694943891 1.9404801104 -4.6341551474 -1.6843141616 2.0801145574 -4.8068358964 -1.7920938126 2.214324268 -4.9881403376 
-1.8953148049 2.3800598251 -5.1442721788 -1.9325266326 2.5204028889 -5.3477890193 -1.973129178 2.6634701459 -5.548744719 
-1.9865147688 2.7616205381 -5.7782819197 -2.0072616269 2.8605132642 -6.0069515429 -2.0326142165 2.9638917436 -6.2331597129 
-1.9920842053 3.0592208557 -6.4606892244 -1.9658829099 3.1812169213 -6.6773235986 -1.95489032 3.3115244098 -6.8903942944 
-1.9618163346 3.4463146723 -7.10083102 -1.9595558315 3.5807523934 -7.3115948434 -1.9591600912 3.7034011527 -7.5294414069 
-1.9922335507 3.8261433401 -7.744709848 -2.0235998482 3.9580476516 -7.9547512915 -2.053410198 4.0821397433 -8.16972221 
-2.0922570198 4.2101350542 -8.380928566 -2.0673262565 4.3390293584 -8.5936836256 -2.0611579752 4.4358891617 -8.8240748816 
-2.0457609566 4.5389463916 -9.0513239502 -2.0376118219 4.6474567449 -9.2763997037 -2.0620327306 4.7344755807 -9.5094905474 
-2.0678249667 4.7919692102 -9.7527207523 -2.0538188065 4.7894724803 -10.002315612 -2.061454029 4.7954964511 -10.25212637 
-2.0748719743 4.7792135014 -10.501234428 -2.0879807121 4.7450832286 -10.748546549 -2.1011430636 4.7103243177 -10.995768253 
-2.1002295418 4.7008537725 -11.245587136 -2.1048346881 4.6894878057 -11.495286169 -2.0641472069 4.6880886783 -11.741949039 
-2.0210511199 4.6768675797 -11.987950694 -1.9835084387 4.6483785121 -12.233468351 -1.9506827239 4.6230643942 -12.480007736 
-1.9004712217 4.6381689642 -12.724447211 -1.8375331244 4.6537107888 -12.96589544 -1.7745908329 4.6759472614 -13.206818265 
-1.7324654219 4.637703043 -13.450257845 -1.6671038275 4.5609504363 -13.679030438 -1.598399743 4.4811403079 -13.905768376 
-1.5362405788 4.3949975328 -14.132077148 -1.4802902991 4.3079524624 -14.359657292 -1.4132617365 4.2082396067 -14.578893508 
-1.3346237404 4.1025622853 -14.791374964 -1.2639046148 4.0215870271 -15.017077895 -1.1811068059 3.9440623254 -15.239865784 
-1.0986307142 3.8389919159 -15.45118995 -0.9637992344 3.7108445705 -15.618219079 -0.83607035007 3.5887696699 -15.795089231 
-0.67316557472 3.4694079904 -15.942448736 -0.49469270494 3.3540019539 -16.074087946 -0.32610371771 3.2396122859 -16.218976721 
-0.14820477506 3.1356714575 -16.360568636 0.012364935668 3.0233302117 -16.515800116 0.1549159304 2.9000749565 -16.680078405 
0.27000396814 2.7652117596 -16.856335778 0.3829086188 2.6314831379 -17.034855232 0.49747072388 2.4976228367 -17.212216287 
0.60083379182 2.4004242314 -17.418052405 0.66797056282 2.2936634265 -17.633910656 0.75017747883 2.1834571348 -17.842708636 
0.82913521304 2.0737203209 -18.053002496 0.84139766799 2.0604437881 -18.08156333 -0.5126230829 0.66576812132 -3.5400907975 
-0.52277406038 0.77956108233 -3.7624601292 -0.53449030145 0.89788545023 -3.982373916 -0.53515452505 1.0082199251 -4.2067081811 
-0.53644590475 1.1144897642 -4.4329935178 -0.53696454607 1.2507070137 -4.6426231721 -0.51878168185 1.3625180934 -4.8654856093 
-0.50273855675 1.4613674127 -5.0945520412 -0.49082816941 1.5488159746 -5.328455636 -0.53649707025 1.6336061495 -5.5591610277 
-0.58531137867 1.7180366746 -5.7893536638 -0.67092791921 1.7968155302 -6.0106310912 -0.74962718774 1.8695191762 -6.2365085027 
-0.83361798078 1.9305568324 -6.4639287111 -0.91700232593 1.9931029055 -6.6911621587 -0.9753928223 2.0369035191 -6.930268947 
-1.0475750197 2.0677300162 -7.1676282894 -1.1009443958 2.0963864931 -7.4101783173 -1.0913733021 2.1254249614 -7.6583015962 
-1.0949643175 2.1422303757 -7.9077102622 -1.0664266342 2.165504346 -8.1548653099 -1.1248934303 1.2712178784 -4.0456439831 
-1.3701105494 1.2938911888 -4.0025802454 -1.6157087444 1.3095406912 -3.9585732041 -1.8617989566 1.2971902892 -3.9162993943 
-2.1048102068 1.2871864009 -3.8584594899 -2.3536918581 1.2700404026 -3.8422133105 -2.6027259385 1.2509731012 -3.853097466 
-2.8484396668 1.2518422052 -3.8991844311 -3.0916583036 1.2465957369 -3.9567793032 -3.3338077351 1.2274596438 -4.0159186538 
-3.5641759617 1.2403219499 -4.1121737381 -3.7912733809 1.2235452575 -4.2153498243 -4.0204382622 1.2355273717 -4.3145460244 
-4.2478450942 1.2493184055 -4.4174826076 -4.4834828557 1.2739945955 -4.4972693924 -4.7217834282 1.3027450896 -4.567171082 
-4.9607669071 1.3311838138 -4.6348330046 -5.199558466 1.3700473821 -4.6978267701 -5.4302756926 1.4046385181 -4.7876767264 
-5.6506628044 1.4263130494 -4.9036928272 -5.8669179291 1.4821841882 -5.0156676629 -1.5694943891 1.9404801104 -4.6341551474 
-1.4895185985 2.1771164887 -4.6238063594 -1.381831314 2.3982210442 -4.5789039731 -1.2633369749 2.613011121 -4.5306928281 
-1.1462127147 2.8284302862 -4.4819435621 -1.0110186488 3.0229077887 -4.4019369025 -0.87475765502 3.2163027526 -4.3211202613 
-0.70885179817 3.3900448113 -4.2519180669 -0.54644443097 3.5633239055 -4.1738270778 -0.35505468441 3.7110359584 -4.1101787129 
-0.1483501848 3.8487343787 -4.0816761715 0.067808343634 3.9732436541 -4.0651555501 0.28749992486 4.0913120878 -4.0479667714 
0.50374755256 4.2143802933 -4.0236525716 0.73000447932 4.3146703998 -3.988301509 0.94938943915 4.4138568734 -3.9209792775 
1.1649049221 4.5245782177 -3.8593849555 1.3613181123 4.6701551205 -3.8071429788 1.5518888171 4.8233410947 -3.7550194358 
1.7445140987 4.9527028979 -3.6619548088 1.9520510821 5.0706612644 -3.5883375689 -1.9325266326 2.5204028889 -5.3477890193 
-2.0959306286 2.7087500879 -5.365801979 -2.2633102792 2.8933902522 -5.385602541 -2.4178782198 3.0885612485 -5.4083409222 
-2.5479432722 3.3001525355 -5.43684021 -2.6787178666 3.5102060499 -5.4725547247 -2.8107433098 3.7194501556 -5.5084181681 
-2.9413858908 3.9308341965 -5.5357915725 -3.0679742596 4.1429310387 -5.574396163 -3.2382620752 4.3194711085 -5.6227248669 
-3.4034421657 4.4981947511 -5.679938478 -3.5627383883 4.6713598955 -5.7644283958 -3.7260812147 4.8202216789 -5.8813013633 
-3.8851823596 4.9781299918 -5.9919891692 -4.0318882388 5.1192579924 -6.1371107474 -4.1776034972 5.267674107 -6.2758180666 
-4.3006385034 5.4063912843 -6.4435080543 -4.3993083167 5.5617470301 -6.612708705 -4.4888422999 5.7516090069 -6.7484882896 
-4.5691850661 5.9608949852 -6.8591427934 -4.6250139927 6.1476728782 -7.0152628647 -2.0326142165 2.9638917436 -6.2331597129 
-1.8379661322 2.9856981232 -6.3885193121 -1.6391598511 3.01010672 -6.5381197233 -1.4501474801 3.0433683747 -6.6983320385 
-1.259729815 3.1333976635 -6.8330014113 -1.0836211307 3.1947706356 -6.9994919203 -0.90834424086 3.2595978692 -7.1655504693 
-0.7571583047 3.3005064676 -7.3604075946 -0.60996519126 3.3440873206 -7.5577268704 -0.49002972453 3.3894289805 -7.7723419158 
-0.36913794691 3.4240836293 -7.988407261 -0.25986560906 3.4360709529 -8.212942025 -0.15574965957 3.4430170546 -8.4401239362 
-0.037148734201 3.3980559853 -8.65555913 0.11474077309 3.3523152081 -8.8487879034 0.25761539666 3.307527632 -9.0489900887 
0.37134473956 3.3170620605 -9.2714192487 0.45184428968 3.4066055838 -9.4905123337 0.52755006512 3.4859579188 -9.7151717258 
0.61963079677 3.5558990082 -9.9368232155 0.71155600796 3.6256716727 -10.158220968 -1.9618163346 3.4463146723 -7.10083102 
-2.0309726592 3.3358535308 -7.3141751996 -2.104616748 3.2322445112 -7.5294464686 -2.190188981 3.1546980797 -7.751175907 
-2.2976904794 3.0825969981 -7.9650563921 -2.3991063146 3.0081621014 -8.1810986901 -2.5152911443 2.932724715 -8.3892099249 
-2.6353777226 2.9151416721 -8.607773532 -2.7375207027 2.9036163259 -8.8356638083 -2.8064497636 2.8770738805 -9.0745032588 
-2.8451554793 2.8922226211 -9.3210238122 -2.8645235536 2.9469414014 -9.5641919285 -2.8916055665 2.9711691852 -9.8115369892 
-2.9352780296 2.950425028 -10.056817229 -2.9962578971 2.9862888521 -10.296598883 -3.0614373976 3.0026472426 -10.537397629 
-3.1480640416 3.0173237865 -10.77144981 -3.2331271899 3.0370317538 -11.005705774 -3.288509663 3.025893663 -11.249239601 
-3.320897827 3.0297427036 -11.497102853 -3.3208786737 3.0038642036 -11.745309351 -2.0235998482 3.9580476516 -7.9547512915 
-1.8641792939 4.1284428016 -8.0444763141 -1.703088157 4.2983186837 -8.1321793946 -1.5312487767 4.4435719007 -8.2411414537 
-1.3581433132 4.5892239683 -8.3475368188 -1.1862146091 4.7158958043 -8.4775166889 -1.0186464144 4.8089534404 -8.6380195752 
-0.86800983641 4.8930373924 -8.8189574385 -0.72884017182 4.9763139347 -9.0092120626 -0.59088419752 5.0655988889 -9.1976168027 
-0.45467165021 5.1541236562 -9.3876418208 -0.32760832179 5.2513809607 -9.5797249468 -0.20178605879 5.3528466093 -9.770443274 
-0.086646172337 5.4573309696 -9.9662131005 0.03316044533 5.5673355231 -10.15606929 0.1539268129 5.6761187869 -10.346021089 
0.26904779452 5.7614038547 -10.550895726 0.38126424888 5.8387279751 -10.76048687 0.52095386486 5.9122322598 -10.954352626 
0.65941290954 5.9812120167 -11.150747346 0.83217367741 6.082715558 -11.299200735 -2.0611579752 4.4358891617 -8.8240748816 
-2.2749039929 4.4474172946 -8.9532249573 -2.4981042812 4.4241463158 -9.0634070468 -2.7250734602 4.4038012478 -9.1662227557 
-2.9418091811 4.3703748547 -9.2862573487 -3.1667417949 4.3351481088 -9.3895259095 -3.3871943636 4.2952164277 -9.5004588882 
-3.6033343095 4.2456788972 -9.6159125883 -3.8152564157 4.1965541869 -9.7391026194 -4.0309626123 4.1245192607 -9.8429380958 
-4.2473437712 4.0832631956 -9.9611630135 -4.4655861722 4.0789046166 -10.083028748 -4.6819146229 4.0739012266 -10.208236445 
-4.9124821926 4.0776730423 -10.304799219 -5.1348570088 4.0688567566 -10.418692652 -5.3596202142 4.1049321565 -10.522037062 
[...]
CELL_DATA 451
SCALARS solution%20variable double
LOOKUP_TABLE default
7615.3699017 7373.2735124 7124.3883913 6866.5523156 6660.0755969 6445.9522497 6224.5330065 5995.0077325 5812.2532406 
5622.6399976 5426.473151 5223.0125112 5061.8403618 4894.5500837 4721.4066157 4541.7387564 4400.0495259 4252.9294216 
4100.6081762 3942.4811525 3818.2507984 3689.2196012 3555.5866462 3416.8102375 3308.1180939 3195.1961803 3078.2170288 
2956.6973619 2861.7456978 2763.0764444 2660.8392225 2554.6040367 2471.7291046 2385.591315 2296.3206002 2203.53474 
2131.2102703 2056.0226118 1978.0848597 1897.0568713 1833.8911124 1768.2096639 1700.1113132 1629.2922088 1574.0203687 
1516.5311854 1456.9113874 1394.8875474 1346.3604517 1295.8678811 1243.4864799 1188.9671517 1146.1363262 1101.5470074 
1055.2673485 1007.0658219 968.96198402 929.25844453 888.01257208 844.997945 810.68520542 774.86484707 737.58274205 
698.60422969 667.39663604 634.71820667 600.596539 564.76680134 538.41982467 510.86993966 482.14701781 452.02210125 
420.18650451 386.20789165 349.44934711 30.031998683 6734.7425618 6599.9013395 6462.2864887 6321.7163702 6177.9887269 
6030.8772525 5880.1273879 5725.4511229 5566.5205008 5402.9594039 5234.3330311 5060.1342216 4879.7653855 4692.514182 
4497.52008 4293.727239 4079.8161745 3854.1012203 3614.3701939 668.75867968 5875.0541436 5752.2240873 5626.7548762 
5498.4652989 5367.1525408 5232.588398 5094.5145938 4952.6369212 4806.6178317 4656.0669349 4500.5286396 4339.4658111 
4172.2377501 3998.0698802 3816.0109743 3624.8710223 3423.1278132 3208.7805133 2979.10807 595.77095923 5114.6175299 
5003.5273497 4889.9581942 4773.7325543 4654.6508204 4532.4872297 4406.9848036 4277.8489515 4144.7392833 4007.2589781 
3864.9407516 3717.2279912 3563.448854 3402.7798247 3234.1929653 3056.3769347 2867.6138253 2665.5772303 2446.9795293 
528.25665131 4444.4376784 4344.6416794 4242.5460384 4137.9799188 4030.7503952 3920.6382375 3807.3926014 3690.7242556 
3570.2968202 3445.7152544 3316.5104558 3182.1182348 3041.8499304 2894.8502054 2740.0344407 2575.9922008 2400.8311627 
2211.909339 2005.3388901 466.3189291 3855.6700212 3766.5755593 3675.3728384 3581.9001564 3485.9742114 3387.3858365 
3285.8945862 3181.2217724 3073.0413709 2960.967943 2844.5402802 2723.1987604 2596.2531822 2462.8356702 2321.829196 
2171.7542384 2010.5790456 1835.379187 1641.6677268 409.94151901 3339.7813154 3260.6846699 3179.6763482 3096.6056191 
3011.3010511 2923.5663037 2833.1747509 2739.8625133 2643.3192829 2543.176021 2438.988118 2330.2117842 2216.1700172 
2096.001899 1968.5840035 1832.4025031 1685.3319144 1524.2205979 1344.0252422 358.99094037 2888.6773587 2818.8030156 
2747.2128398 2673.7682639 2598.311238 2520.660171 2440.6047153 2357.8989647 2272.2524326 2183.3178552 2090.6743362 
1993.8034557 1892.0543805 1784.5910709 1670.3088869 1547.6956414 1414.5838171 1267.6671147 1101.4309286 313.23235935 
2494.7899234 2433.3278044 2370.3403157 2305.7016583 2239.2679907 2170.8735924 2100.3259107 2027.3990642 1951.8251738 
1873.2825586 1791.3792904 1705.6296591 1615.4194133 1519.9524442 1418.1651459 1308.5806882 1189.0419064 1056.1702177 
904.10102468 272.34569194 2151.1238127 2097.2608634 2042.0544219 1985.39158 1927.1429578 1867.159142 1805.2660671 
1741.2589307 1674.8940304 1605.8775821 1533.8500328 1458.3634261 1378.8476467 1294.5580312 1204.4899815 1107.2309553 
1000.6824544 881.47738375 743.53679851 235.93748301 1851.2704746 1804.2159032 1755.9893911 1706.4906978 1655.6047392 
1603.1983322 1549.1159589 1493.1741651 1435.1540124 1374.7906861 1311.7588296 1245.6512387 1175.9468218 1101.9603725 
1022.7596758 937.01949182 842.73668216 736.62424417 612.54602932 203.56319711 1589.3912772 1548.3934097 1506.3843921 
1463.2762247 1418.9676936 1373.3414388 1326.260129 1277.5613864 1227.0509219 1174.493046 1119.5972095 1061.9983374 
1001.2270495 936.6625774 867.44966903 792.36072214 709.51987047 615.79026762 505.12418505 174.72239379 1360.1825735 
1324.5400271 1288.0371758 1250.5977893 1212.1340234 1172.5438178 1131.7074939 1089.4832299 1045.7009216 1000.1536671 
952.58564144 902.67101307 849.98912455 793.98082506 733.87491678 668.5551486 596.2957412 514.15994471 416.31585779 
148.83598132 1158.8227309 1127.8899985 1096.2398249 1063.8074199 1030.5179439 996.28423958 961.00361823 924.55197554 
886.78008602 847.50594981 806.50385247 763.48822659 718.08893367 669.81162867 617.97046056 561.5650583 499.03228519 
427.66928178 341.95818909 125.12236192 980.90327374 954.09308044 926.70033785 898.66960261 869.93660594 840.42623877 
810.04990698 778.70199742 746.25505911 712.55307708 677.40182505 640.55457697 601.69011433 560.37724492 516.01408573 
467.71593458 414.0857505 352.66927786 278.31465405 102.14365093 822.25097208 798.9788012 775.24510397 751.00538636 
726.20769902 700.79090272 674.68238748 647.79501859 620.02296206 591.23584118 561.27032615 529.91762507 496.90412939 
461.859983 424.26483838 383.34654368 337.8704529 285.62711973 221.82394274 75.485129748 678.07984694 657.09306573 
635.71086182 613.89363627 591.59423792 568.75602974 545.31029703 521.1727015 496.23831326 470.37445359 443.4100372 
415.1190567 385.19370604 353.19786287 318.47985167 279.98994363 235.83244408 181.83566768 70.04859651 540.38138583 
514.99931886 488.66238449 461.19928141 432.385225 401.91634701 369.36583199 334.10275936 295.12550465 250.66445997 
196.97646154 46.071872765 7700.3831275 7784.3836485 7867.5577168 7949.931965 8031.5316793 8112.3808925 8192.5024694 
8271.9181842 8350.6487921 8428.7140943 8506.1329985 8582.9235736 8659.1031014 8734.6881229 8809.6944824 8881.8950699 
8953.6802234 9024.9640847 9095.7589275 9166.0765616 9235.9283564 9305.3252635 9374.2778383 9430.1534047 9485.8240827 
9541.2392816 9596.4037794 9651.3222219 9705.9991268 9760.4388894 9814.6457864 9846.4392495 9878.2166137 9909.9612272 
9941.6735948 9973.354212 10005.003566 10036.622134 10068.210388 10068.209376 8944.5653702 10157.504495 11180.821464 
11994.670379 
