# vtk DataFile Version 5.1
vtk output
ASCII
DATASET UNSTRUCTURED_GRID
POINTS 474 double
0 0 -3 -0.11344901018 0.17758382911 -3.1345113591 -0.25315847539 0.33878440002 -3.2648786912 
-0.38126193464 0.50363826191 -3.4024021726 -0.5126230829 0.66576812132 -3.5400907975 -0.65843420624 0.83063257984 -3.6586607204 
-0.82297351213 0.96639713451 -3.7890248355 -0.97532665543 1.1205572503 -3.9136168835 -1.1248934303 1.2712178784 -4.0456439831 
-1.260480867 1.4416481412 -4.1684021702 -1.3678821889 1.6074581306 -4.3216079256 -1.4660695894 1.784059061 -4.4688198332 
-1.5694943891 1.9404801104 -4.6341551474 -1.6843141616 2.0801145574 -4.8068358964 -1.7920938126 2.214324268 -4.9881403376 
-1.8953148049 2.3800598251 -5.1442721788 -1.9325266326 2.5204028889 -5.3477890193 -1.973129178 2.6634701459 -5.548744719 
-1.9865147688 2.7616205381 -5.7782819197 -2.0072616269 2.8605132642 -6.0069515429 -2.0326142165 2.9638917436 -6.2331597129 
-1.9920842053 3.0592208557 -6.4606892244 -1.9658829099 3.1812169213 -6.6773235986 -1.95489032 3.3115244098 -6.8903942944 
-1.9618163346 3.4463146723 -7.10083102 -1.9595558315 3.5807523934 -7.3115948434 -1.9591600912 3.7034011527 -7.5294414069 
-1.9922335507 3.8261433401 -7.744709848 -2.0235998482 3.9580476516 -7.9547512915 -2.053410198 4.0821397433 -8.16972221 
-2.0922570198 4.2101350542 -8.380928566 -2.0673262565 4.3390293584 -8.5936836256 -2.0611579752 4.4358891617 -8.8240748816 
-2.0457609566 4.5389463916 -9.0513239502 -2.0376118219 4.6474567449 -9.2763997037 -2.0620327306 4.7344755807 -9.5094905474 
-2.0678249667 4.7919692102 -9.7527207523 -2.0538188065 4.7894724803 -10.002315612 -2.061454029 4.7954964511 -10.25212637 
-2.0748719743 4.7792135014 -10.501234428 -2.0879807121 4.7450832286 -10.748546549 -2.1011430636 4.7103243177 -10.995768253 
-2.1002295418 4.7008537725 -11.245587136 -2.1048346881 4.6894878057 -11.495286169 -2.0641472069 4.6880886783 -11.741949039 
-2.0210511199 4.6768675797 -11.987950694 -1.9835084387 4.6483785121 -12.233468351 -1.9506827239 4.6230643942 -12.480007736 
-1.9004712217 4.6381689642 -12.724447211 -1.8375331244 4.6537107888 -12.96589544 -1.7745908329 4.6759472614 -13.206818265 
-1.7324654219 4.637703043 -13.450257845 -1.6671038275 4.5609504363 -13.679030438 -1.598399743 4.4811403079 -13.905768376 
-1.5362405788 4.3949975328 -14.132077148 -1.4802902991 4.3079524624 -14.359657292 -1.4132617365 4.2082396067 -14.578893508 
-1.3346237404 4.1025622853 -14.791374964 -1.2639046148 4.0215870271 -15.017077895 -1.1811068059 3.9440623254 -15.239865784 
-1.0986307142 3.8389919159 -15.45118995 -0.9637992344 3.7108445705 -15.618219079 -0.83607035007 3.5887696699 -15.795089231 
-0.67316557472 3.4694079904 -15.942448736 -0.49469270494 3.3540019539 -16.074087946 -0.32610371771 3.2396122859 -16.218976721 
-0.14820477506 3.1356714575 -16.360568636 0.012364935668 3.0233302117 -16.515800116 0.1549159304 2.9000749565 -16.680078405 
0.27000396814 2.7652117596 -16.856335778 0.3829086188 2.6314831379 -17.034855232 0.49747072388 2.4976228367 -17.212216287 
0.60083379182 2.4004242314 -17.418052405 0.66797056282 2.2936634265 -17.633910656 0.75017747883 2.1834571348 -17.842708636 
0.82913521304 2.0737203209 -18.053002496 0.84139766799 2.0604437881 -18.08156333 -0.5126230829 0.66576812132 -3.5400907975 
-0.52277406038 0.77956108233 -3.7624601292 -0.53449030145 0.89788545023 -3.982373916 -0.53515452505 1.0082199251 -4.2067081811 
-0.53644590475 1.1144897642 -4.4329935178 -0.53696454607 1.2507070137 -4.6426231721 -0.51878168185 1.3625180934 -4.8654856093 
-0.50273855675 1.4613674127 -5.0945520412 -0.49082816941 1.5488159746 -5.328455636 -0.53649707025 1.6336061495 -5.5591610277 
-0.58531137867 1.7180366746 -5.7893536638 -0.67092791921 1.7968155302 -6.0106310912 -0.74962718774 1.8695191762 -6.2365085027 
-0.83361798078 1.9305568324 -6.4639287111 -0.91700232593 1.9931029055 -6.6911621587 -0.9753928223 2.0369035191 -6.930268947 
-1.0475750197 2.0677300162 -7.1676282894 -1.1009443958 2.0963864931 -7.4101783173 -1.0913733021 2.1254249614 -7.6583015962 
-1.0949643175 2.1422303757 -7.9077102622 -1.0664266342 2.165504346 -8.1548653099 -1.1248934303 1.2712178784 -4.0456439831 
-1.3701105494 1.2938911888 -4.0025802454 -1.6157087444 1.3095406912 -3.9585732041 -1.8617989566 1.2971902892 -3.9162993943 
-2.1048102068 1.2871864009 -3.8584594899 -2.3536918581 1.2700404026 -3.8422133105 -2.6027259385 1.2509731012 -3.853097466 
-2.8484396668 1.2518422052 -3.8991844311 -3.0916583036 1.2465957369 -3.9567793032 -3.3338077351 1.2274596438 -4.0159186538 
-3.5641759617 1.2403219499 -4.1121737381 -3.7912733809 1.2235452575 -4.2153498243 -4.0204382622 1.2355273717 -4.3145460244 
-4.2478450942 1.2493184055 -4.4174826076 -4.4834828557 1.2739945955 -4.4972693924 -4.7217834282 1.3027450896 -4.567171082 
-4.9607669071 1.3311838138 -4.6348330046 -5.199558466 1.3700473821 -4.6978267701 -5.4302756926 1.4046385181 -4.7876767264 
-5.6506628044 1.4263130494 -4.9036928272 -5.8669179291 1.4821841882 -5.0156676629 -1.5694943891 1.9404801104 -4.6341551474 
-1.4895185985 2.1771164887 -4.6238063594 -1.381831314 2.3982210442 -4.5789039731 -1.2633369749 2.613011121 -4.5306928281 
-1.1462127147 2.8284302862 -4.4819435621 -1.0110186488 3.0229077887 -4.4019369025 -0.87475765502 3.2163027526 -4.3211202613 
-0.70885179817 3.3900448113 -4.2519180669 -0.54644443097 3.5633239055 -4.1738270778 -0.35505468441 3.7110359584 -4.1101787129 
-0.1483501848 3.8487343787 -4.0816761715 0.067808343634 3.9732436541 -4.0651555501 0.28749992486 4.0913120878 -4.0479667714 
0.50374755256 4.2143802933 -4.0236525716 0.73000447932 4.3146703998 -3.988301509 0.94938943915 4.4138568734 -3.9209792775 
1.1649049221 4.5245782177 -3.8593849555 1.3613181123 4.6701551205 -3.8071429788 1.5518888171 4.8233410947 -3.7550194358 
1.7445140987 4.9527028979 -3.6619548088 1.9520510821 5.0706612644 -3.5883375689 -1.9325266326 2.5204028889 -5.3477890193 
-2.0959306286 2.7087500879 -5.365801979 -2.2633102792 2.8933902522 -5.385602541 -2.4178782198 3.0885612485 -5.4083409222 
-2.5479432722 3.3001525355 -5.43684021 -2.6787178666 3.5102060499 -5.4725547247 -2.8107433098 3.7194501556 -5.5084181681 
-2.9413858908 3.9308341965 -5.5357915725 -3.0679742596 4.1429310387 -5.574396163 -3.2382620752 4.3194711085 -5.6227248669 
-3.4034421657 4.4981947511 -5.679938478 -3.5627383883 4.6713598955 -5.7644283958 -3.7260812147 4.8202216789 -5.8813013633 
-3.8851823596 4.9781299918 -5.9919891692 -4.0318882388 5.1192579924 -6.1371107474 -4.1776034972 5.267674107 -6.2758180666 
-4.3006385034 5.4063912843 -6.4435080543 -4.3993083167 5.5617470301 -6.612708705 -4.4888422999 5.7516090069 -6.7484882896 
-4.5691850661 5.9608949852 -6.8591427934 -4.6250139927 6.1476728782 -7.0152628647 -2.0326142165 2.9638917436 -6.2331597129 
-1.8379661322 2.9856981232 -6.3885193121 -1.6391598511 3.01010672 -6.5381197233 -1.4501474801 3.0433683747 -6.6983320385 
-1.259729815 3.1333976635 -6.8330014113 -1.0836211307 3.1947706356 -6.9994919203 -0.90834424086 3.2595978692 -7.1655504693 
-0.7571583047 3.3005064676 -7.3604075946 -0.60996519126 3.3440873206 -7.5577268704 -0.49002972453 3.3894289805 -7.7723419158 
-0.36913794691 3.4240836293 -7.988407261 -0.25986560906 3.4360709529 -8.212942025 -0.15574965957 3.4430170546 -8.4401239362 
-0.037148734201 3.3980559853 -8.65555913 0.11474077309 3.3523152081 -8.8487879034 0.25761539666 3.307527632 -9.0489900887 
0.37134473956 3.3170620605 -9.2714192487 0.45184428968 3.4066055838 -9.4905123337 0.52755006512 3.4859579188 -9.7151717258 
0.61963079677 3.5558990082 -9.9368232155 0.71155600796 3.6256716727 -10.158220968 -1.9618163346 3.4463146723 -7.10083102 
-2.0309726592 3.3358535308 -7.3141751996 -2.104616748 3.2322445112 -7.5294464686 -2.190188981 3.1546980797 -7.751175907 
-2.2976904794 3.0825969981 -7.9650563921 -2.3991063146 3.0081621014 -8.1810986901 -2.5152911443 2.932724715 -8.3892099249 
-2.6353777226 2.9151416721 -8.607773532 -2.7375207027 2.9036163259 -8.8356638083 -2.8064497636 2.8770738805 -9.0745032588 
-2.8451554793 2.8922226211 -9.3210238122 -2.8645235536 2.9469414014 -9.5641919285 -2.8916055665 2.9711691852 -9.8115369892 
-2.9352780296 2.950425028 -10.056817229 -2.9962578971 2.9862888521 -10.296598883 -3.0614373976 3.0026472426 -10.537397629 
-3.1480640416 3.0173237865 -10.77144981 -3.2331271899 3.0370317538 -11.005705774 -3.288509663 3.025893663 -11.249239601 
-3.320897827 3.0297427036 -11.497102853 -3.3208786737 3.0038642036 -11.745309351 -2.0235998482 3.9580476516 -7.9547512915 
-1.8641792939 4.1284428016 -8.0444763141 -1.703088157 4.2983186837 -8.1321793946 -1.5312487767 4.4435719007 -8.2411414537 
-1.3581433132 4.5892239683 -8.3475368188 -1.1862146091 4.7158958043 -8.4775166889 -1.0186464144 4.8089534404 -8.6380195752 
-0.86800983641 4.8930373924 -8.8189574385 -0.72884017182 4.9763139347 -9.0092120626 -0.59088419752 5.0655988889 -9.1976168027 
-0.45467165021 5.1541236562 -9.3876418208 -0.32760832179 5.2513809607 -9.5797249468 -0.20178605879 5.3528466093 -9.770443274 
-0.086646172337 5.4573309696 -9.9662131005 0.03316044533 5.5673355231 -10.15606929 0.1539268129 5.6761187869 -10.346021089 
0.26904779452 5.7614038547 -10.550895726 0.38126424888 5.8387279751 -10.76048687 0.52095386486 5.9122322598 -10.954352626 
0.65941290954 5.9812120167 -11.150747346 0.83217367741 6.082715558 -11.299200735 -2.0611579752 4.4358891617 -8.8240748816 
-2.2749039929 4.4474172946 -8.9532249573 -2.4981042812 4.4241463158 -9.0634070468 -2.7250734602 4.4038012478 -9.1662227557 
-2.9418091811 4.3703748547 -9.2862573487 -3.1667417949 4.3351481088 -9.3895259095 -3.3871943636 4.2952164277 -9.5004588882 
-3.6033343095 4.2456788972 -9.6159125883 -3.8152564157 4.1965541869 -9.7391026194 -4.0309626123 4.1245192607 -9.8429380958 
-4.2473437712 4.0832631956 -9.9611630135 -4.4655861722 4.0789046166 -10.083028748 -4.6819146229 4.0739012266 -10.208236445 
-4.9124821926 4.0776730423 -10.304799219 -5.1348570088 4.0688567566 -10.418692652 -5.3596202142 4.1049321565 -10.522037062 
[...]
CELL_DATA 451
SCALARS solution%20variable double
LOOKUP_TABLE default
7617.7958373 7375.6615215 7126.7375168 6868.8616804 6662.3518446 6448.1944619 6226.7403036 5997.1793217 5814.396192 
5624.7535275 5428.5565033 5225.0650404 5063.869484 4896.5552133 4723.387183 4543.6943376 4401.987815 4254.8501062 
4102.510947 3944.3658971 3820.1254426 3691.0841959 3557.4412307 3418.6551177 3309.9614094 3197.0384534 3080.0587523 
2958.5393877 2863.596385 2764.9369147 2662.7105456 2556.4877618 2473.6338112 2387.5188724 2298.2727947 2205.5139902 
2133.2253211 2058.0762407 1980.179715 1899.1964249 1836.0840496 1770.4598205 1702.4223262 1631.6687702 1576.4705323 
1519.0599367 1459.5234085 1397.5888423 1349.1571722 1298.7660999 1246.4918049 1192.0868006 1149.3720116 1104.9054858 
1058.7546688 1010.689912 972.71512439 933.14722584 892.04258104 849.17688932 814.9848653 779.28895368 742.13359029 
703.28617866 672.15293183 639.54491257 605.48771144 569.71784056 543.42264811 515.91177639 487.21173204 457.09309056 
425.2473545 391.2437347 354.44984685 30.271466648 6737.0350078 6602.1760289 6464.5425399 6323.9528931 6180.2048251 
6033.0720266 5882.2999394 5727.6005606 5568.6459486 5405.0600118 5236.407991 5062.1827888 4881.7869098 4694.5081522 
4499.4861902 4295.6654878 4081.7270192 3855.9858247 3616.2308433 668.96225038 5877.2079874 5754.3592111 5628.8702603 
5500.5599057 5369.2253161 5234.6382729 5096.5404879 4954.6377467 4808.5925002 4658.0143666 4502.4477778 4341.3556421 
4174.0973343 3999.898398 3817.8077981 3626.6358295 3424.8607722 3210.4826004 2980.7816397 595.97298175 5116.6517786 
5005.5422004 4891.9524807 4775.7050818 4656.6003658 4534.412542 4408.8846049 4279.7219396 4146.5841356 4009.0743585 
3866.725321 3718.9804253 3565.1678701 3404.4642261 3235.8417134 3057.9892704 2869.1894802 2667.1168127 2448.485278 
528.45746759 4446.3747307 4346.558935 4244.4421741 4139.8535718 4032.6001613 3922.4626698 3809.1902095 3692.4935048 
3572.036133 3447.4230129 3318.1850081 3183.7579067 3043.4530463 2896.4151256 2741.5596278 2577.4763395 2402.2733847 
2213.3096685 2006.6991944 466.51944324 3857.5362478 3768.4218375 3677.1976727 3583.7019991 3487.7514599 3389.1368294 
3287.6176 3182.915018 3074.7029908 2962.5960092 2846.1327942 2724.7536577 2597.7683434 2464.3089471 2323.2584639 
2173.1375035 2011.9146662 1836.666355 1642.9076088 410.14338149 3341.6079127 3262.4913698 3181.4614563 3098.3673759 
3013.0376267 2925.2757921 2834.8551638 2741.5117732 2644.9352157 2544.7563486 2440.5304508 2331.713616 2217.6287243 
2097.4147494 1969.9481882 1833.7152176 1686.5905539 1525.4232408 1345.1719458 359.19676328 2890.5015391 2820.6075143 
2748.9957205 2675.5275095 2600.0447439 2522.3657367 2442.2800353 2359.5416176 2273.8598689 2184.8873832 2092.2031064 
1995.2884443 1893.4923727 1785.9786495 1671.6424341 1548.9713796 1415.7979533 1268.8162782 1102.5135511 313.4459321 
2496.6564818 2435.1750781 2372.1660574 2307.5035214 2241.0435199 2172.6202131 2102.0409162 2029.0796005 1953.4682217 
1874.8849122 1792.9375317 1707.1401282 1616.8781731 1521.3552426 1419.5073797 1309.8573882 1190.2478004 1057.300064 
905.15096796 272.57239283 2153.0869588 2099.2054137 2043.9777124 1987.2908228 1929.0152299 1869.0013707 1807.0750133 
1743.0311688 1676.6259234 1607.565252 1535.4893229 1459.949855 1380.3763509 1296.0236941 1205.8867494 1108.5523473 
1001.9213085 882.6260116 744.58826751 236.18465829 1853.3957354 1806.3238699 1758.0768249 1708.5542024 1657.6407457 
1605.2030808 1551.0854771 1495.1042412 1437.0401625 1376.6281126 1313.5423699 1247.3752982 1177.6052881 1103.5465023 
1024.2659468 938.4374124 844.05668186 737.83548449 613.63720931 203.84070637 1591.7567971 1550.744181 1508.7163697 
1465.5851567 1421.2491016 1375.590595 1328.4720272 1279.7307071 1229.1719888 1176.5597703 1121.603019 1063.9360832 
1003.0888822 938.43977839 869.13255338 793.93821437 710.97907334 617.11595792 506.29891929 175.04320593 1362.8788535 
1327.2266059 1290.7088687 1253.2491287 1214.7592332 1175.1367827 1134.2617223 1091.991807 1048.156451 1002.5481959 
954.91056246 904.91710226 852.14622965 796.03763173 735.8186147 670.37094032 597.96610333 515.66354364 417.62650245 
149.21679963 1161.9485149 1131.0158854 1099.3590176 1066.912712 1033.6016852 999.33829361 964.01950965 927.52065488 
889.69185441 850.35036237 809.26959191 766.16293404 720.6589764 672.26177166 620.28338552 563.72063063 501.00638621 
429.4318887 343.47053265 125.5836592 984.55430906 957.76350724 930.38140749 902.35197112 873.61028828 844.08055433 
813.6734134 782.28240908 749.7791446 716.00652779 680.76908281 643.81860223 604.83206534 563.3760185 518.84563352 
470.35219511 416.49288364 354.80456263 280.12102797 102.70630963 826.50009686 803.28893337 779.60502376 755.40289015 
730.62952537 705.22264678 679.10840007 652.1982848 624.38495219 595.5363229 565.48712162 534.02628729 500.8774965 
465.66754082 427.87176804 386.71222348 340.94595384 288.35074142 224.11333527 76.139662674 682.8860946 662.01267233 
640.72938875 618.9948797 596.76007065 573.96622064 550.54230112 526.40141051 501.43575127 475.509394 448.44750295 
420.01964048 389.91260042 357.68339716 322.67113214 283.81271473 239.19098338 184.59441113 71.000999976 545.32705682 
519.918048 493.52886794 465.98563343 437.06058998 406.44638365 373.7120139 338.22142568 298.96666028 254.17093622 
200.08922956 46.605676653 7702.8223623 7786.8351885 7870.020589 7952.405218 8034.014382 8114.8721336 8195.0013568 
8274.4238442 8353.1603689 8431.2307494 8508.6539101 8585.4479364 8661.6301257 8737.2170349 8812.2245231 8884.4259892 
8956.211248 9027.4944812 9098.2879766 9168.6035575 9238.4526067 9307.8460892 9376.7945729 9432.6686404 9488.337064 
9543.7492828 9598.910087 9653.8241343 9708.4959543 9762.9299539 9817.1304214 9848.9222721 9880.6972548 9912.4387319 
9944.1472161 9975.8232113 10007.467213 10039.079707 10070.661172 10070.660194 8947.0657576 10159.823217 11182.979381 
11996.68108 
