# vtk DataFile Version 5.1
vtk output
ASCII
DATASET UNSTRUCTURED_GRID
POINTS 474 double
0 0 -3 -0.11344901018 0.17758382911 -3.1345113591 -0.25315847539 0.33878440002 -3.2648786912 
-0.38126193464 0.50363826191 -3.4024021726 -0.5126230829 0.66576812132 -3.5400907975 -0.65843420624 0.83063257984 -3.6586607204 
-0.82297351213 0.96639713451 -3.7890248355 -0.97532665543 1.1205572503 -3.9136168835 -1.1248934303 1.2712178784 -4.0456439831 
-1.260480867 1.4416481412 -4.1684021702 -1.3678821889 1.6074581306 -4.3216079256 -1.4660695894 1.784059061 -4.4688198332 
-1.5694943891 1.9404801104 -4.6341551474 -1.6843141616 2.0801145574 -4.8068358964 -1.7920938126 2.214324268 -4.9881403376 
-1.8953148049 2.3800598251 -5.1442721788 -1.9325266326 2.5204028889 -5.3477890193 -1.973129178 2.6634701459 -5.548744719 
-1.9865147688 2.7616205381 -5.7782819197 -2.0072616269 2.8605132642 -6.0069515429 -2.0326142165 2.9638917436 -6.2331597129 
-1.9920842053 3.0592208557 -6.4606892244 -1.9658829099 3.1812169213 -6.6773235986 -1.95489032 3.3115244098 -6.8903942944 
-1.9618163346 3.4463146723 -7.10083102 -1.9595558315 3.5807523934 -7.3115948434 -1.9591600912 3.7034011527 -7.5294414069 
-1.9922335507 3.8261433401 -7.744709848 -2.0235998482 3.9580476516 -7.9547512915 -2.053410198 4.0821397433 -8.16972221 
-2.0922570198 4.2101350542 -8.380928566 -2.0673262565 4.3390293584 -8.5936836256 -2.0611579752 4.4358891617 -8.8240748816 
-2.0457609566 4.5389463916 -9.0513239502 -2.0376118219 4.6474567449 -9.2763997037 -2.0620327306 4.7344755807 -9.5094905474 
-2.0678249667 4.7919692102 -9.7527207523 -2.0538188065 4.7894724803 -10.002315612 -2.061454029 4.7954964511 -10.25212637 
-2.0748719743 4.7792135014 -10.501234428 -2.0879807121 4.7450832286 -10.748546549 -2.1011430636 4.7103243177 -10.995768253 
-2.1002295418 4.7008537725 -11.245587136 -2.1048346881 4.6894878057 -11.495286169 -2.0641472069 4.6880886783 -11.741949039 
-2.0210511199 4.6768675797 -11.987950694 -1.9835084387 4.6483785121 -12.233468351 -1.9506827239 4.6230643942 -12.480007736 
-1.9004712217 4.6381689642 -12.724447211 -1.8375331244 4.6537107888 -12.96589544 -1.7745908329 4.6759472614 -13.206818265 
-1.7324654219 4.637703043 -13.450257845 -1.6671038275 4.5609504363 -13.679030438 -1.598399743 4.4811403079 -13.905768376 
-1.5362405788 4.3949975328 -14.132077148 -1.4802902991 4.3079524624 -14.359657292 -1.4132617365 4.2082396067 -14.578893508 
-1.3346237404 4.1025622853 -14.791374964 -1.2639046148 4.0215870271 -15.017077895 -1.1811068059 3.9440623254 -15.239865784 
-1.0986307142 3.8389919159 -15.45118995 -0.9637992344 3.7108445705 -15.618219079 -0.83607035007 3.5887696699 -15.795089231 
-0.67316557472 3.4694079904 -15.942448736 -0.49469270494 3.3540019539 -16.074087946 -0.32610371771 3.2396122859 -16.218976721 
-0.14820477506 3.1356714575 -16.360568636 0.012364935668 3.0233302117 -16.515800116 0.1549159304 2.9000749565 -16.680078405 
0.27000396814 2.7652117596 -16.856335778 0.3829086188 2.6314831379 -17.034855232 0.49747072388 2.4976228367 -17.212216287 
0.60083379182 2.4004242314 -17.418052405 0.66797056282 2.2936634265 -17.633910656 0.75017747883 2.1834571348 -17.842708636 
0.82913521304 2.0737203209 -18.053002496 0.84139766799 2.0604437881 -18.08156333 -0.5126230829 0.66576812132 -3.5400907975 
-0.52277406038 0.77956108233 -3.7624601292 -0.53449030145 0.89788545023 -3.982373916 -0.53515452505 1.0082199251 -4.2067081811 
-0.53644590475 1.1144897642 -4.4329935178 -0.53696454607 1.2507070137 -4.6426231721 -0.51878168185 1.3625180934 -4.8654856093 
-0.50273855675 1.4613674127 -5.0945520412 -0.49082816941 1.5488159746 -5.328455636 -0.53649707025 1.6336061495 -5.5591610277 
-0.58531137867 1.7180366746 -5.7893536638 -0.67092791921 1.7968155302 -6.0106310912 -0.74962718774 1.8695191762 -6.2365085027 
-0.83361798078 1.9305568324 -6.4639287111 -0.91700232593 1.9931029055 -6.6911621587 -0.9753928223 2.0369035191 -6.930268947 
-1.0475750197 2.0677300162 -7.1676282894 -1.1009443958 2.0963864931 -7.4101783173 -1.0913733021 2.1254249614 -7.6583015962 
-1.0949643175 2.1422303757 -7.9077102622 -1.0664266342 2.165504346 -8.1548653099 -1.1248934303 1.2712178784 -4.0456439831 
-1.3701105494 1.2938911888 -4.0025802454 -1.6157087444 1.3095406912 -3.9585732041 -1.8617989566 1.2971902892 -3.9162993943 
-2.1048102068 1.2871864009 -3.8584594899 -2.3536918581 1.2700404026 -3.8422133105 -2.6027259385 1.2509731012 -3.853097466 
-2.8484396668 1.2518422052 -3.8991844311 -3.0916583036 1.2465957369 -3.9567793032 -3.3338077351 1.2274596438 -4.0159186538 
-3.5641759617 1.2403219499 -4.1121737381 -3.7912733809 1.2235452575 -4.2153498243 -4.0204382622 1.2355273717 -4.3145460244 
-4.2478450942 1.2493184055 -4.4174826076 -4.4834828557 1.2739945955 -4.4972693924 -4.7217834282 1.3027450896 -4.567171082 
-4.9607669071 1.3311838138 -4.6348330046 -5.199558466 1.3700473821 -4.6978267701 -5.4302756926 1.4046385181 -4.7876767264 
-5.6506628044 1.4263130494 -4.9036928272 -5.8669179291 1.4821841882 -5.0156676629 -1.5694943891 1.9404801104 -4.6341551474 
-1.4895185985 2.1771164887 -4.6238063594 -1.381831314 2.3982210442 -4.5789039731 -1.2633369749 2.613011121 -4.5306928281 
-1.1462127147 2.8284302862 -4.4819435621 -1.0110186488 3.0229077887 -4.4019369025 -0.87475765502 3.2163027526 -4.3211202613 
-0.70885179817 3.3900448113 -4.2519180669 -0.54644443097 3.5633239055 -4.1738270778 -0.35505468441 3.7110359584 -4.1101787129 
-0.1483501848 3.8487343787 -4.0816761715 0.067808343634 3.9732436541 -4.0651555501 0.28749992486 4.0913120878 -4.0479667714 
0.50374755256 4.2143802933 -4.0236525716 0.73000447932 4.3146703998 -3.988301509 0.94938943915 4.4138568734 -3.9209792775 
1.1649049221 4.5245782177 -3.8593849555 1.3613181123 4.6701551205 -3.8071429788 1.5518888171 4.8233410947 -3.7550194358 
1.7445140987 4.9527028979 -3.6619548088 1.9520510821 5.0706612644 -3.5883375689 -1.9325266326 2.5204028889 -5.3477890193 
-2.0959306286 2.7087500879 -5.365801979 -2.2633102792 2.8933902522 -5.385602541 -2.4178782198 3.0885612485 -5.4083409222 
-2.5479432722 3.3001525355 -5.43684021 -2.6787178666 3.5102060499 -5.4725547247 -2.8107433098 3.7194501556 -5.5084181681 
-2.9413858908 3.9308341965 -5.5357915725 -3.0679742596 4.1429310387 -5.574396163 -3.2382620752 4.3194711085 -5.6227248669 
-3.4034421657 4.4981947511 -5.679938478 -3.5627383883 4.6713598955 -5.7644283958 -3.7260812147 4.8202216789 -5.8813013633 
-3.8851823596 4.9781299918 -5.9919891692 -4.0318882388 5.1192579924 -6.1371107474 -4.1776034972 5.267674107 -6.2758180666 
-4.3006385034 5.4063912843 -6.4435080543 -4.3993083167 5.5617470301 -6.612708705 -4.4888422999 5.7516090069 -6.7484882896 
-4.5691850661 5.9608949852 -6.8591427934 -4.6250139927 6.1476728782 -7.0152628647 -2.0326142165 2.9638917436 -6.2331597129 
-1.8379661322 2.9856981232 -6.3885193121 -1.6391598511 3.01010672 -6.5381197233 -1.4501474801 3.0433683747 -6.6983320385 
-1.259729815 3.1333976635 -6.8330014113 -1.0836211307 3.1947706356 -6.9994919203 -0.90834424086 3.2595978692 -7.1655504693 
-0.7571583047 3.3005064676 -7.3604075946 -0.60996519126 3.3440873206 -7.5577268704 -0.49002972453 3.3894289805 -7.7723419158 
-0.36913794691 3.4240836293 -7.988407261 -0.25986560906 3.4360709529 -8.212942025 -0.15574965957 3.4430170546 -8.4401239362 
-0.037148734201 3.3980559853 -8.65555913 0.11474077309 3.3523152081 -8.8487879034 0.25761539666 3.307527632 -9.0489900887 
0.37134473956 3.3170620605 -9.2714192487 0.45184428968 3.4066055838 -9.4905123337 0.52755006512 3.4859579188 -9.7151717258 
0.61963079677 3.5558990082 -9.9368232155 0.71155600796 3.6256716727 -10.158220968 -1.9618163346 3.4463146723 -7.10083102 
-2.0309726592 3.3358535308 -7.3141751996 -2.104616748 3.2322445112 -7.5294464686 -2.190188981 3.1546980797 -7.751175907 
-2.2976904794 3.0825969981 -7.9650563921 -2.3991063146 3.0081621014 -8.1810986901 -2.5152911443 2.932724715 -8.3892099249 
-2.6353777226 2.9151416721 -8.607773532 -2.7375207027 2.9036163259 -8.8356638083 -2.8064497636 2.8770738805 -9.0745032588 
-2.8451554793 2.8922226211 -9.3210238122 -2.8645235536 2.9469414014 -9.5641919285 -2.8916055665 2.9711691852 -9.8115369892 
-2.9352780296 2.950425028 -10.056817229 -2.9962578971 2.9862888521 -10.296598883 -3.0614373976 3.0026472426 -10.537397629 
-3.1480640416 3.0173237865 -10.77144981 -3.2331271899 3.0370317538 -11.005705774 -3.288509663 3.025893663 -11.249239601 
-3.320897827 3.0297427036 -11.497102853 -3.3208786737 3.0038642036 -11.745309351 -2.0235998482 3.9580476516 -7.9547512915 
-1.8641792939 4.1284428016 -8.0444763141 -1.703088157 4.2983186837 -8.1321793946 -1.5312487767 4.4435719007 -8.2411414537 
-1.3581433132 4.5892239683 -8.3475368188 -1.1862146091 4.7158958043 -8.4775166889 -1.0186464144 4.8089534404 -8.6380195752 
-0.86800983641 4.8930373924 -8.8189574385 -0.72884017182 4.9763139347 -9.0092120626 -0.59088419752 5.0655988889 -9.1976168027 
-0.45467165021 5.1541236562 -9.3876418208 -0.32760832179 5.2513809607 -9.5797249468 -0.20178605879 5.3528466093 -9.770443274 
-0.086646172337 5.4573309696 -9.9662131005 0.03316044533 5.5673355231 -10.15606929 0.1539268129 5.6761187869 -10.346021089 
0.26904779452 5.7614038547 -10.550895726 0.38126424888 5.8387279751 -10.76048687 0.52095386486 5.9122322598 -10.954352626 
0.65941290954 5.9812120167 -11.150747346 0.83217367741 6.082715558 -11.299200735 -2.0611579752 4.4358891617 -8.8240748816 
-2.2749039929 4.4474172946 -8.9532249573 -2.4981042812 4.4241463158 -9.0634070468 -2.7250734602 4.4038012478 -9.1662227557 
-2.9418091811 4.3703748547 -9.2862573487 -3.1667417949 4.3351481088 -9.3895259095 -3.3871943636 4.2952164277 -9.5004588882 
-3.6033343095 4.2456788972 -9.6159125883 -3.8152564157 4.1965541869 -9.7391026194 -4.0309626123 4.1245192607 -9.8429380958 
-4.2473437712 4.0832631956 -9.9611630135 -4.4655861722 4.0789046166 -10.083028748 -4.6819146229 4.0739012266 -10.208236445 
-4.9124821926 4.0776730423 -10.304799219 -5.1348570088 4.0688567566 -10.418692652 -5.3596202142 4.1049321565 -10.522037062 
[...]
CELL_DATA 451
SCALARS solution%20variable double
LOOKUP_TABLE default
7617.9703518 7375.8333087 7126.906508 6869.0278124 6662.5155956 6448.3557658 6226.8990972 5997.3355481 5814.55036 
5624.9055808 5428.7063876 5225.2127094 5064.0154714 4896.6994772 4723.5296825 4543.8350425 4402.127279 4254.9883071 
4102.6478627 3944.5015198 3820.2603428 3691.2183776 3557.574697 3418.7878909 3310.0940756 3197.1710503 3080.1913159 
2958.6719796 2863.729607 2765.070848 2662.8452675 2556.623384 2473.7709514 2387.6576655 2298.4133694 2205.6565209 
2133.3704368 2058.2241414 1980.3305912 1899.3505264 1836.2420005 1770.6218962 1702.5887878 1631.8399544 1576.647016 
1519.242077 1459.7115401 1397.7833947 1349.3585829 1298.9748018 1246.708197 1192.3113966 1149.6049278 1105.1472007 
1059.0056094 1010.9506385 972.9850768 933.42686612 892.33229827 849.47722204 815.29380504 779.60675462 742.46040304 
703.62229856 672.49437598 639.89139383 605.83879925 570.07319912 543.78172464 516.27365686 487.57526402 457.45708958 
425.61065069 391.60526928 354.80888272 30.288579118 6737.1999229 6602.3396667 6464.7048371 6324.1137856 6180.3642485 
6033.2299161 5882.4562305 5727.7551893 5568.7988518 5405.2111284 5236.5572628 5062.3301625 4881.9323384 4694.6515991 
4499.6276335 4295.8049273 4081.8644879 3856.1214063 3616.3647022 668.97689361 5877.3629373 5754.5128144 5629.0224436 
5500.7105945 5369.3744345 5234.7857441 5096.6862341 4954.7816897 4808.7345618 4658.1544692 4502.5858453 4341.4916017 
4174.2311183 4000.0299476 3817.9370682 3626.762797 3424.9854492 3210.6050572 2980.9020457 595.98751415 5116.7981325 
5005.6871589 4892.0959599 4775.8469957 4656.7406264 4534.5510594 4409.0212872 4279.8566931 4146.7168653 4009.2049681 
3866.8537145 3719.1065072 3565.2915484 3404.5854147 3235.9603376 3058.1052756 2869.3028472 2667.2275853 2448.5936174 
528.47191401 4446.5141025 4346.6968826 4244.5786023 4139.9883825 4032.7332535 3922.5939396 3809.3195495 3692.6208047 
3572.1612793 3447.5458894 3318.3054958 3183.8758852 3043.5683952 2896.5277271 2741.6693712 2577.5831302 2402.3771605 
2213.4104312 2006.7970783 466.53386908 3857.6705382 3768.5546926 3677.3289849 3583.8316571 3487.8793484 3389.2628289 
3287.7415865 3183.0368628 3074.8225603 2962.7131646 2846.247392 2724.8655492 2597.8773763 2464.4149667 2323.3613176 
2173.2370479 2012.0107832 1836.7589866 1642.9968392 410.15790598 3341.7393704 3262.6213958 3181.5899287 3098.494168 
3013.1626069 2925.3988233 2834.9761029 2741.6304706 2645.0515151 2544.8700861 2440.6414544 2331.8217055 2217.733711 
2097.5164366 1970.046374 1833.8097001 1686.6811459 1525.5098043 1345.254485 359.21157503 2890.632847 2820.737406 
2749.1240565 2675.6541448 2600.1695268 2522.488509 2442.400631 2359.6598624 2273.9755794 2185.0003656 2092.3131557 
1995.3953428 1893.5958892 1786.078538 1671.7384344 1549.0632199 1415.8853608 1268.8990105 1102.5914956 313.46130467 
2496.7908689 2435.3080776 2372.2975075 2307.6332531 2241.1713564 2172.7459692 2102.1643968 2029.2006002 1953.5865232 
1875.0002846 1793.0497291 1707.248887 1616.9832099 1521.4562515 1419.6040293 1309.9493209 1190.3346368 1057.3814271 
905.22658066 272.58871431 2153.2283315 2099.3454488 2044.1162181 1987.4275984 1929.1500647 1869.1340434 1807.2052906 
1743.158804 1676.7506547 1607.6868 1535.6073882 1460.0641149 1380.4864553 1296.1292601 1205.9873556 1108.6475271 
1002.0105463 882.70875408 744.66401606 236.20245916 1853.5488099 1806.4757012 1758.2271795 1708.7028356 1657.7874004 
1605.3474859 1551.2273466 1495.2432716 1437.1760307 1376.760473 1313.6708507 1247.4994964 1177.7247634 1103.660769 
1024.3744633 938.53956719 844.15178594 737.92275774 613.71583875 203.86069569 1591.9271902 1550.9135157 1508.8843546 
1465.7514852 1421.4134511 1375.7526245 1328.6313761 1279.886992 1229.3248007 1176.7086704 1121.7475338 1064.0756976 
1003.2230307 938.56783293 869.25381633 794.05188802 711.08422894 617.21149954 506.38359181 175.06631858 1363.0730506 
1327.42011 1290.9013061 1253.4401053 1214.9483327 1175.3235644 1134.4457183 1092.172519 1048.333346 1002.7207007 
955.07805666 905.07892114 852.30164171 796.18582191 735.95866037 670.50177595 598.08646745 515.771901 417.72096942 
149.24423166 1162.1735558 1131.2409364 1099.5835889 1067.1362844 1033.8237076 999.55817988 964.23664943 927.73439653 
889.90149961 850.55515924 809.46872584 766.35551561 720.84402464 672.43819046 620.44992909 563.87585079 501.14854862 
429.55883517 343.57947807 125.61686472 984.81696372 958.02754544 930.64619902 902.61684316 873.87452216 844.3433816 
813.93401115 782.53989407 750.03256594 716.25485752 681.01120356 644.05329061 605.0579689 563.59162285 519.04921327 
470.54173737 416.66596157 354.95811354 280.25096414 102.74674038 826.80540028 803.5985437 779.91813205 755.71861772 
730.9469186 705.54067112 679.42593292 652.51410699 624.6977374 595.84462439 565.78935498 534.32070741 501.16216588 
465.94028417 428.13010445 386.95325976 341.1662064 288.54581949 224.27738546 76.186480155 683.23090361 662.36537022 
641.08893005 619.36009517 597.12965645 574.33872594 550.91611369 526.77473946 501.80660598 475.87555744 448.80649671 
420.36867706 390.24851498 358.00254431 322.9692193 284.08450989 239.42974348 184.79059009 71.068594129 545.68196492 
520.27095992 493.87797467 466.32894367 437.39590274 406.77125192 374.02369538 338.51681616 299.2422103 254.42259645 
200.31284432 46.64387009 7702.9978332 7787.0115442 7870.1977597 7952.5831352 8034.1929787 8115.0513444 8195.1811175 
8274.6040919 8353.3410421 8431.4117878 8508.8352546 8585.6295291 8661.8119098 8737.3989547 8812.4065241 8884.6080535 
8956.3933198 9027.6765079 9098.4699064 9168.7853397 9238.6341914 9308.0274276 9376.9756171 9432.8495769 9488.5178384 
9543.9298428 9599.0903815 9654.0041126 9708.675567 9763.1091521 9817.3091572 9849.100892 9880.8757034 9912.616955 
9944.3251599 9976.0008227 10007.644439 10039.256496 10070.837473 10070.836498 8947.2456262 10159.990021 11183.13462 
11996.825731 
