# vtk DataFile Version 5.1
vtk output
ASCII
DATASET UNSTRUCTURED_GRID
POINTS 474 double
0 0 -3 -0.11344901018 0.17758382911 -3.1345113591 -0.25315847539 0.33878440002 -3.2648786912 
-0.38126193464 0.50363826191 -3.4024021726 -0.5126230829 0.66576812132 -3.5400907975 -0.65843420624 0.83063257984 -3.6586607204 
-0.82297351213 0.96639713451 -3.7890248355 -0.97532665543 1.1205572503 -3.9136168835 -1.1248934303 1.2712178784 -4.0456439831 
-1.260480867 1.4416481412 -4.1684021702 -1.3678821889 1.6074581306 -4.3216079256 -1.4660695894 1.784059061 -4.4688198332 
-1.5694943891 1.9404801104 -4.6341551474 -1.6843141616 2.0801145574 -4.8068358964 -1.7920938126 2.214324268 -4.9881403376 
-1.8953148049 2.3800598251 -5.1442721788 -1.9325266326 2.5204028889 -5.3477890193 -1.973129178 2.6634701459 -5.548744719 
-1.9865147688 2.7616205381 -5.7782819197 -2.0072616269 2.8605132642 -6.0069515429 -2.0326142165 2.9638917436 -6.2331597129 
-1.9920842053 3.0592208557 -6.4606892244 -1.9658829099 3.1812169213 -6.6773235986 -1.95489032 3.3115244098 -6.8903942944 
-1.9618163346 3.4463146723 -7.10083102 -1.9595558315 3.5807523934 -7.3115948434 -1.9591600912 3.7034011527 -7.5294414069 
-1.9922335507 3.8261433401 -7.744709848 -2.0235998482 3.9580476516 -7.9547512915 -2.053410198 4.0821397433 -8.16972221 
-2.0922570198 4.2101350542 -8.380928566 -2.0673262565 4.3390293584 -8.5936836256 -2.0611579752 4.4358891617 -8.8240748816 
-2.0457609566 4.5389463916 -9.0513239502 -2.0376118219 4.6474567449 -9.2763997037 -2.0620327306 4.7344755807 -9.5094905474 
-2.0678249667 4.7919692102 -9.7527207523 -2.0538188065 4.7894724803 -10.002315612 -2.061454029 4.7954964511 -10.25212637 
-2.0748719743 4.7792135014 -10.501234428 -2.0879807121 4.7450832286 -10.748546549 -2.1011430636 4.7103243177 -10.995768253 
-2.1002295418 4.7008537725 -11.245587136 -2.1048346881 4.6894878057 -11.495286169 -2.0641472069 4.6880886783 -11.741949039 
-2.0210511199 4.6768675797 -11.987950694 -1.9835084387 4.6483785121 -12.233468351 -1.9506827239 4.6230643942 -12.480007736 
-1.9004712217 4.6381689642 -12.724447211 -1.8375331244 4.6537107888 -12.96589544 -1.7745908329 4.6759472614 -13.206818265 
-1.7324654219 4.637703043 -13.450257845 -1.6671038275 4.5609504363 -13.679030438 -1.598399743 4.4811403079 -13.905768376 
-1.5362405788 4.3949975328 -14.132077148 -1.4802902991 4.3079524624 -14.359657292 -1.4132617365 4.2082396067 -14.578893508 
-1.3346237404 4.1025622853 -14.791374964 -1.2639046148 4.0215870271 -15.017077895 -1.1811068059 3.9440623254 -15.239865784 
-1.0986307142 3.8389919159 -15.45118995 -0.9637992344 3.7108445705 -15.618219079 -0.83607035007 3.5887696699 -15.795089231 
-0.67316557472 3.4694079904 -15.942448736 -0.49469270494 3.3540019539 -16.074087946 -0.32610371771 3.2396122859 -16.218976721 
-0.14820477506 3.1356714575 -16.360568636 0.012364935668 3.0233302117 -16.515800116 0.1549159304 2.9000749565 -16.680078405 
0.27000396814 2.7652117596 -16.856335778 0.3829086188 2.6314831379 -17.034855232 0.49747072388 2.4976228367 -17.212216287 
0.60083379182 2.4004242314 -17.418052405 0.66797056282 2.2936634265 -17.633910656 0.75017747883 2.1834571348 -17.842708636 
0.82913521304 2.0737203209 -18.053002496 0.84139766799 2.0604437881 -18.08156333 -0.5126230829 0.66576812132 -3.5400907975 
-0.52277406038 0.77956108233 -3.7624601292 -0.53449030145 0.89788545023 -3.982373916 -0.53515452505 1.0082199251 -4.2067081811 
-0.53644590475 1.1144897642 -4.4329935178 -0.53696454607 1.2507070137 -4.6426231721 -0.51878168185 1.3625180934 -4.8654856093 
-0.50273855675 1.4613674127 -5.0945520412 -0.49082816941 1.5488159746 -5.328455636 -0.53649707025 1.6336061495 -5.5591610277 
-0.58531137867 1.7180366746 -5.7893536638 -0.67092791921 1.7968155302 -6.0106310912 -0.74962718774 1.8695191762 -6.2365085027 
-0.83361798078 1.9305568324 -6.4639287111 -0.91700232593 1.9931029055 -6.6911621587 -0.9753928223 2.0369035191 -6.930268947 
-1.0475750197 2.0677300162 -7.1676282894 -1.1009443958 2.0963864931 -7.4101783173 -1.0913733021 2.1254249614 -7.6583015962 
-1.0949643175 2.1422303757 -7.9077102622 -1.0664266342 2.165504346 -8.1548653099 -1.1248934303 1.2712178784 -4.0456439831 
-1.3701105494 1.2938911888 -4.0025802454 -1.6157087444 1.3095406912 -3.9585732041 -1.8617989566 1.2971902892 -3.9162993943 
-2.1048102068 1.2871864009 -3.8584594899 -2.3536918581 1.2700404026 -3.8422133105 -2.6027259385 1.2509731012 -3.853097466 
-2.8484396668 1.2518422052 -3.8991844311 -3.0916583036 1.2465957369 -3.9567793032 -3.3338077351 1.2274596438 -4.0159186538 
-3.5641759617 1.2403219499 -4.1121737381 -3.7912733809 1.2235452575 -4.2153498243 -4.0204382622 1.2355273717 -4.3145460244 
-4.2478450942 1.2493184055 -4.4174826076 -4.4834828557 1.2739945955 -4.4972693924 -4.7217834282 1.3027450896 -4.567171082 
-4.9607669071 1.3311838138 -4.6348330046 -5.199558466 1.3700473821 -4.6978267701 -5.4302756926 1.4046385181 -4.7876767264 
-5.6506628044 1.4263130494 -4.9036928272 -5.8669179291 1.4821841882 -5.0156676629 -1.5694943891 1.9404801104 -4.6341551474 
-1.4895185985 2.1771164887 -4.6238063594 -1.381831314 2.3982210442 -4.5789039731 -1.2633369749 2.613011121 -4.5306928281 
-1.1462127147 2.8284302862 -4.4819435621 -1.0110186488 3.0229077887 -4.4019369025 -0.87475765502 3.2163027526 -4.3211202613 
-0.70885179817 3.3900448113 -4.2519180669 -0.54644443097 3.5633239055 -4.1738270778 -0.35505468441 3.7110359584 -4.1101787129 
-0.1483501848 3.8487343787 -4.0816761715 0.067808343634 3.9732436541 -4.0651555501 0.28749992486 4.0913120878 -4.0479667714 
0.50374755256 4.2143802933 -4.0236525716 0.73000447932 4.3146703998 -3.988301509 0.94938943915 4.4138568734 -3.9209792775 
1.1649049221 4.5245782177 -3.8593849555 1.3613181123 4.6701551205 -3.8071429788 1.5518888171 4.8233410947 -3.7550194358 
1.7445140987 4.9527028979 -3.6619548088 1.9520510821 5.0706612644 -3.5883375689 -1.9325266326 2.5204028889 -5.3477890193 
-2.0959306286 2.7087500879 -5.365801979 -2.2633102792 2.8933902522 -5.385602541 -2.4178782198 3.0885612485 -5.4083409222 
-2.5479432722 3.3001525355 -5.43684021 -2.6787178666 3.5102060499 -5.4725547247 -2.8107433098 3.7194501556 -5.5084181681 
-2.9413858908 3.9308341965 -5.5357915725 -3.0679742596 4.1429310387 -5.574396163 -3.2382620752 4.3194711085 -5.6227248669 
-3.4034421657 4.4981947511 -5.679938478 -3.5627383883 4.6713598955 -5.7644283958 -3.7260812147 4.8202216789 -5.8813013633 
-3.8851823596 4.9781299918 -5.9919891692 -4.0318882388 5.1192579924 -6.1371107474 -4.1776034972 5.267674107 -6.2758180666 
-4.3006385034 5.4063912843 -6.4435080543 -4.3993083167 5.5617470301 -6.612708705 -4.4888422999 5.7516090069 -6.7484882896 
-4.5691850661 5.9608949852 -6.8591427934 -4.6250139927 6.1476728782 -7.0152628647 -2.0326142165 2.9638917436 -6.2331597129 
-1.8379661322 2.9856981232 -6.3885193121 -1.6391598511 3.01010672 -6.5381197233 -1.4501474801 3.0433683747 -6.6983320385 
-1.259729815 3.1333976635 -6.8330014113 -1.0836211307 3.1947706356 -6.9994919203 -0.90834424086 3.2595978692 -7.1655504693 
-0.7571583047 3.3005064676 -7.3604075946 -0.60996519126 3.3440873206 -7.5577268704 -0.49002972453 3.3894289805 -7.7723419158 
-0.36913794691 3.4240836293 -7.988407261 -0.25986560906 3.4360709529 -8.212942025 -0.15574965957 3.4430170546 -8.4401239362 
-0.037148734201 3.3980559853 -8.65555913 0.11474077309 3.3523152081 -8.8487879034 0.25761539666 3.307527632 -9.0489900887 
0.37134473956 3.3170620605 -9.2714192487 0.45184428968 3.4066055838 -9.4905123337 0.52755006512 3.4859579188 -9.7151717258 
0.61963079677 3.5558990082 -9.9368232155 0.71155600796 3.6256716727 -10.158220968 -1.9618163346 3.4463146723 -7.10083102 
-2.0309726592 3.3358535308 -7.3141751996 -2.104616748 3.2322445112 -7.5294464686 -2.190188981 3.1546980797 -7.751175907 
-2.2976904794 3.0825969981 -7.9650563921 -2.3991063146 3.0081621014 -8.1810986901 -2.5152911443 2.932724715 -8.3892099249 
-2.6353777226 2.9151416721 -8.607773532 -2.7375207027 2.9036163259 -8.8356638083 -2.8064497636 2.8770738805 -9.0745032588 
-2.8451554793 2.8922226211 -9.3210238122 -2.8645235536 2.9469414014 -9.5641919285 -2.8916055665 2.9711691852 -9.8115369892 
-2.9352780296 2.950425028 -10.056817229 -2.9962578971 2.9862888521 -10.296598883 -3.0614373976 3.0026472426 -10.537397629 
-3.1480640416 3.0173237865 -10.77144981 -3.2331271899 3.0370317538 -11.005705774 -3.288509663 3.025893663 -11.249239601 
-3.320897827 3.0297427036 -11.497102853 -3.3208786737 3.0038642036 -11.745309351 -2.0235998482 3.9580476516 -7.9547512915 
-1.8641792939 4.1284428016 -8.0444763141 -1.703088157 4.2983186837 -8.1321793946 -1.5312487767 4.4435719007 -8.2411414537 
-1.3581433132 4.5892239683 -8.3475368188 -1.1862146091 4.7158958043 -8.4775166889 -1.0186464144 4.8089534404 -8.6380195752 
-0.86800983641 4.8930373924 -8.8189574385 -0.72884017182 4.9763139347 -9.0092120626 -0.59088419752 5.0655988889 -9.1976168027 
-0.45467165021 5.1541236562 -9.3876418208 -0.32760832179 5.2513809607 -9.5797249468 -0.20178605879 5.3528466093 -9.770443274 
-0.086646172337 5.4573309696 -9.9662131005 0.03316044533 5.5673355231 -10.15606929 0.1539268129 5.6761187869 -10.346021089 
0.26904779452 5.7614038547 -10.550895726 0.38126424888 5.8387279751 -10.76048687 0.52095386486 5.9122322598 -10.954352626 
0.65941290954 5.9812120167 -11.150747346 0.83217367741 6.082715558 -11.299200735 -2.0611579752 4.4358891617 -8.8240748816 
-2.2749039929 4.4474172946 -8.9532249573 -2.4981042812 4.4241463158 -9.0634070468 -2.7250734602 4.4038012478 -9.1662227557 
-2.9418091811 4.3703748547 -9.2862573487 -3.1667417949 4.3351481088 -9.3895259095 -3.3871943636 4.2952164277 -9.5004588882 
-3.6033343095 4.2456788972 -9.6159125883 -3.8152564157 4.1965541869 -9.7391026194 -4.0309626123 4.1245192607 -9.8429380958 
-4.2473437712 4.0832631956 -9.9611630135 -4.4655861722 4.0789046166 -10.083028748 -4.6819146229 4.0739012266 -10.208236445 
-4.9124821926 4.0776730423 -10.304799219 -5.1348570088 4.0688567566 -10.418692652 -5.3596202142 4.1049321565 -10.522037062 
[...]
CELL_DATA 451
SCALARS solution%20variable double
LOOKUP_TABLE default
7622.2414653 7380.0377166 7131.04253 6873.0939099 6666.5234683 6452.3038035 6230.7857582 6001.1594444 5818.3239449 
5628.6274834 5432.375286 5228.827477 5067.5891753 4900.2310979 4727.0182287 4547.2797818 4405.541772 4258.3720192 
4106.0002645 3947.8224308 3823.563737 3694.5043641 3560.8433638 3422.0397981 3313.343578 3200.4190904 3083.4387834 
2961.9203992 2866.9937204 2768.3526548 2666.1466736 2559.9471416 2477.1321816 2391.0596804 2301.8593299 2209.1507019 
2136.9282202 2061.8504208 1984.0300249 1903.1292178 1840.1151715 1774.5962617 1706.6707005 1636.0376073 1580.9744025 
1523.7078509 1464.3237999 1402.5525278 1354.2950642 1304.0890437 1252.009764 1197.8126115 1155.3082798 1111.0640622 
1065.1460699 1017.3279615 979.58536422 940.26089523 899.40904342 856.80918568 822.83273886 787.35827959 750.42760565 
711.81165234 680.8126023 648.3313076 614.38975378 578.72678475 552.52565645 525.08578622 496.42776502 466.32140628 
434.45862357 400.4114473 363.5555498 30.702670918 6741.2362383 6606.3447262 6468.6770901 6328.0516665 6184.2661806 
6037.0943176 5886.2815214 5731.5398023 5572.5412464 5408.9098103 5240.2108115 5065.937269 4885.4918605 4698.1626393 
4503.0896556 4299.2179311 4085.2292806 3859.4400379 3619.6411952 669.3352329 5881.1555931 5758.272515 5632.7473952 
5504.3989717 5373.0243827 5238.3953833 5100.2536637 4958.3049967 4812.2118318 4661.5838037 4505.965386 4344.8195667 
4177.505856 4003.2500181 3821.1013696 3629.8707647 3428.0373828 3213.6026778 2983.8494992 596.34316408 5120.3807135 
5009.2355866 4895.6081819 4779.3209099 4660.1740808 4537.9418526 4412.3671712 4283.1553769 4149.9660223 4012.402248 
3869.9967623 3722.1929939 3568.3192186 3407.552165 3238.8643432 3060.945204 2872.0782301 2669.9394981 2451.246004 
528.82549333 4449.9262125 4350.0741314 4247.918661 4143.2888522 4035.9916627 3925.8077418 3812.4861215 3695.7374461 
3575.2252138 3450.5542703 3321.2554168 3186.7644008 3046.3925581 2899.2846538 2744.3563587 2580.1978675 2404.9181243 
2215.8776704 2009.1938859 466.88699324 3860.9588338 3771.8078538 3680.5443779 3587.0065569 3491.0109327 3392.3481725 
3290.7776547 3186.0205059 3077.7505079 2965.5820229 2849.0536433 2727.6055598 2600.5474165 2467.0112567 2325.8801198 
2175.6748562 2014.3647131 1839.0276234 1645.1822459 410.51351417 3344.959073 3265.8060485 3184.7365461 3101.5996498 
3016.2237288 2928.4122274 2837.9382863 2744.5377736 2647.9001079 2547.6559559 2443.3603928 2334.469299 2220.3053395 
2100.0072901 1972.4515081 1836.1241795 1688.9003896 1527.6304373 1347.2766213 359.57431208 2893.8498346 2823.9197232 
2752.2682885 2678.7567346 2603.2267635 2525.4965126 2445.3553367 2362.5570015 2276.8106575 2187.7686381 2095.0096004 
1998.0146306 1896.1323553 1788.5261615 1674.0908423 1551.3137599 1418.027356 1270.9265326 1104.5017986 313.83790334 
2500.0844038 2438.5676512 2375.5191526 2310.8128275 2244.3045269 2175.8281919 2105.1908951 2032.1663381 1956.4861734 
1877.8281913 1795.7998629 1709.914792 1619.5579428 1523.9323141 1421.9733064 1312.203054 1192.463537 1059.3762659 
907.08058466 272.98871955 2156.6942053 2102.7786126 2047.5119643 1990.7810013 1932.4559597 1872.3870022 1810.3995914 
1746.2883959 1679.8091145 1610.6672788 1538.5025459 1462.8660391 1383.18656 1298.7181612 1208.4547225 1110.9819257 
1004.1993458 884.73840365 746.52231552 236.63891394 1857.3024447 1810.1989702 1761.9143536 1712.3479076 1661.3840584 
1608.8890815 1554.706856 1498.6532491 1440.5085501 1380.0070556 1316.8223732 1250.5460742 1180.6555987 1106.4639524 
1027.0367128 941.04589362 846.48530306 740.06435496 615.6456183 204.35096232 1596.1056411 1555.0662033 1513.0041195 
1469.8308028 1425.444397 1379.7268336 1332.5399921 1283.7206056 1233.0733726 1180.3614336 1125.2928679 1067.5009651 
1006.5143585 941.70981531 872.2293434 796.84140033 713.66496073 619.55659942 508.46233669 175.63328702 1367.8337325 
1332.1640469 1295.6193236 1258.1225295 1219.5849453 1179.9035488 1138.957593 1096.6040554 1052.6714651 1006.9513406 
959.18600057 909.0478642 856.11364449 799.82089924 739.39419419 673.7116524 601.03978096 518.43105919 420.03989573 
149.91694359 1167.6859349 1136.7538168 1105.0849667 1072.613441 1039.2631493 1004.9455655 969.55672901 932.97121029 
895.03794834 855.57283472 814.34768886 771.07399884 725.37802485 676.76089193 624.53085994 567.67959814 504.63271556 
432.67069187 346.25105309 126.43007964 991.2410359 964.48499715 937.12158815 909.09369408 880.33524717 850.76918692 
820.3047826 788.83405577 756.22690233 722.32428474 686.92846923 649.78856967 610.57830406 568.86012366 524.02386405 
475.17353735 420.89585569 358.71161859 283.42879621 103.73378678 834.25575319 811.15091151 787.55267707 763.41383753 
738.67952507 713.28544926 687.15557351 660.19900389 632.30573691 603.34070777 573.13522575 541.47423943 508.07664109 
472.56330084 434.40194562 392.80432952 346.51275619 293.28237634 228.26362171 77.320661279 691.6223481 670.93884844 
649.81865407 628.21738395 606.08269263 583.35227607 559.95120002 535.7882457 510.75079072 484.69743461 457.44701837 
428.76161139 398.3188338 365.66397865 330.12030749 290.60166808 245.15373773 189.49612743 72.684666134 554.32180487 
528.85954817 502.37157767 474.67950933 445.55041382 414.6708663 381.60258412 345.70060181 305.94604738 260.55006761 
205.76601959 47.569002153 7707.2923385 7791.327693 7874.5338411 7956.9374756 8038.5639408 8119.4373256 8199.5805486 
8279.0154364 8357.7627946 8435.8424735 8513.2734283 8590.0737741 8666.2608375 8741.8512035 8816.8607591 8889.0638349 
8960.8492871 9032.1313711 9102.9224 9173.2342223 9243.078245 9312.4654573 9381.4064506 9437.2777742 9492.9420703 
9548.3488328 9603.5028741 9658.4088736 9713.0713828 9767.4948297 9821.683524 9853.4724223 9885.2430444 9916.9787784 
9948.6801516 9980.3476828 10011.981883 10043.583253 10075.152287 10075.151373 8951.6476989 10164.072508 11186.934182 
12000.366252 
