# vtk DataFile Version 5.1
vtk output
ASCII
DATASET UNSTRUCTURED_GRID
POINTS 474 double
0 0 -3 -0.11344901018 0.17758382911 -3.1345113591 -0.25315847539 0.33878440002 -3.2648786912 
-0.38126193464 0.50363826191 -3.4024021726 -0.5126230829 0.66576812132 -3.5400907975 -0.65843420624 0.83063257984 -3.6586607204 
-0.82297351213 0.96639713451 -3.7890248355 -0.97532665543 1.1205572503 -3.9136168835 -1.1248934303 1.2712178784 -4.0456439831 
-1.260480867 1.4416481412 -4.1684021702 -1.3678821889 1.6074581306 -4.3216079256 -1.4660695894 1.784059061 -4.4688198332 
-1.5694943891 1.9404801104 -4.6341551474 -1.6843141616 2.0801145574 -4.8068358964 -1.7920938126 2.214324268 -4.9881403376 
-1.8953148049 2.3800598251 -5.1442721788 -1.9325266326 2.5204028889 -5.3477890193 -1.973129178 2.6634701459 -5.548744719 
-1.9865147688 2.7616205381 -5.7782819197 -2.0072616269 2.8605132642 -6.0069515429 -2.0326142165 2.9638917436 -6.2331597129 
-1.9920842053 3.0592208557 -6.4606892244 -1.9658829099 3.1812169213 -6.6773235986 -1.95489032 3.3115244098 -6.8903942944 
-1.9618163346 3.4463146723 -7.10083102 -1.9595558315 3.5807523934 -7.3115948434 -1.9591600912 3.7034011527 -7.5294414069 
-1.9922335507 3.8261433401 -7.744709848 -2.0235998482 3.9580476516 -7.9547512915 -2.053410198 4.0821397433 -8.16972221 
-2.0922570198 4.2101350542 -8.380928566 -2.0673262565 4.3390293584 -8.5936836256 -2.0611579752 4.4358891617 -8.8240748816 
-2.0457609566 4.5389463916 -9.0513239502 -2.0376118219 4.6474567449 -9.2763997037 -2.0620327306 4.7344755807 -9.5094905474 
-2.0678249667 4.7919692102 -9.7527207523 -2.0538188065 4.7894724803 -10.002315612 -2.061454029 4.7954964511 -10.25212637 
-2.0748719743 4.7792135014 -10.501234428 -2.0879807121 4.7450832286 -10.748546549 -2.1011430636 4.7103243177 -10.995768253 
-2.1002295418 4.7008537725 -11.245587136 -2.1048346881 4.6894878057 -11.495286169 -2.0641472069 4.6880886783 -11.741949039 
-2.0210511199 4.6768675797 -11.987950694 -1.9835084387 4.6483785121 -12.233468351 -1.9506827239 4.6230643942 -12.480007736 
-1.9004712217 4.6381689642 -12.724447211 -1.8375331244 4.6537107888 -12.96589544 -1.7745908329 4.6759472614 -13.206818265 
-1.7324654219 4.637703043 -13.450257845 -1.6671038275 4.5609504363 -13.679030438 -1.598399743 4.4811403079 -13.905768376 
-1.5362405788 4.3949975328 -14.132077148 -1.4802902991 4.3079524624 -14.359657292 -1.4132617365 4.2082396067 -14.578893508 
-1.3346237404 4.1025622853 -14.791374964 -1.2639046148 4.0215870271 -15.017077895 -1.1811068059 3.9440623254 -15.239865784 
-1.0986307142 3.8389919159 -15.45118995 -0.9637992344 3.7108445705 -15.618219079 -0.83607035007 3.5887696699 -15.795089231 
-0.67316557472 3.4694079904 -15.942448736 -0.49469270494 3.3540019539 -16.074087946 -0.32610371771 3.2396122859 -16.218976721 
-0.14820477506 3.1356714575 -16.360568636 0.012364935668 3.0233302117 -16.515800116 0.1549159304 2.9000749565 -16.680078405 
0.27000396814 2.7652117596 -16.856335778 0.3829086188 2.6314831379 -17.034855232 0.49747072388 2.4976228367 -17.212216287 
0.60083379182 2.4004242314 -17.418052405 0.66797056282 2.2936634265 -17.633910656 0.75017747883 2.1834571348 -17.842708636 
0.82913521304 2.0737203209 -18.053002496 0.84139766799 2.0604437881 -18.08156333 -0.5126230829 0.66576812132 -3.5400907975 
-0.52277406038 0.77956108233 -3.7624601292 -0.53449030145 0.89788545023 -3.982373916 -0.53515452505 1.0082199251 -4.2067081811 
-0.53644590475 1.1144897642 -4.4329935178 -0.53696454607 1.2507070137 -4.6426231721 -0.51878168185 1.3625180934 -4.8654856093 
-0.50273855675 1.4613674127 -5.0945520412 -0.49082816941 1.5488159746 -5.328455636 -0.53649707025 1.6336061495 -5.5591610277 
-0.58531137867 1.7180366746 -5.7893536638 -0.67092791921 1.7968155302 -6.0106310912 -0.74962718774 1.8695191762 -6.2365085027 
-0.83361798078 1.9305568324 -6.4639287111 -0.91700232593 1.9931029055 -6.6911621587 -0.9753928223 2.0369035191 -6.930268947 
-1.0475750197 2.0677300162 -7.1676282894 -1.1009443958 2.0963864931 -7.4101783173 -1.0913733021 2.1254249614 -7.6583015962 
-1.0949643175 2.1422303757 -7.9077102622 -1.0664266342 2.165504346 -8.1548653099 -1.1248934303 1.2712178784 -4.0456439831 
-1.3701105494 1.2938911888 -4.0025802454 -1.6157087444 1.3095406912 -3.9585732041 -1.8617989566 1.2971902892 -3.9162993943 
-2.1048102068 1.2871864009 -3.8584594899 -2.3536918581 1.2700404026 -3.8422133105 -2.6027259385 1.2509731012 -3.853097466 
-2.8484396668 1.2518422052 -3.8991844311 -3.0916583036 1.2465957369 -3.9567793032 -3.3338077351 1.2274596438 -4.0159186538 
-3.5641759617 1.2403219499 -4.1121737381 -3.7912733809 1.2235452575 -4.2153498243 -4.0204382622 1.2355273717 -4.3145460244 
-4.2478450942 1.2493184055 -4.4174826076 -4.4834828557 1.2739945955 -4.4972693924 -4.7217834282 1.3027450896 -4.567171082 
-4.9607669071 1.3311838138 -4.6348330046 -5.199558466 1.3700473821 -4.6978267701 -5.4302756926 1.4046385181 -4.7876767264 
-5.6506628044 1.4263130494 -4.9036928272 -5.8669179291 1.4821841882 -5.0156676629 -1.5694943891 1.9404801104 -4.6341551474 
-1.4895185985 2.1771164887 -4.6238063594 -1.381831314 2.3982210442 -4.5789039731 -1.2633369749 2.613011121 -4.5306928281 
-1.1462127147 2.8284302862 -4.4819435621 -1.0110186488 3.0229077887 -4.4019369025 -0.87475765502 3.2163027526 -4.3211202613 
-0.70885179817 3.3900448113 -4.2519180669 -0.54644443097 3.5633239055 -4.1738270778 -0.35505468441 3.7110359584 -4.1101787129 
-0.1483501848 3.8487343787 -4.0816761715 0.067808343634 3.9732436541 -4.0651555501 0.28749992486 4.0913120878 -4.0479667714 
0.50374755256 4.2143802933 -4.0236525716 0.73000447932 4.3146703998 -3.988301509 0.94938943915 4.4138568734 -3.9209792775 
1.1649049221 4.5245782177 -3.8593849555 1.3613181123 4.6701551205 -3.8071429788 1.5518888171 4.8233410947 -3.7550194358 
1.7445140987 4.9527028979 -3.6619548088 1.9520510821 5.0706612644 -3.5883375689 -1.9325266326 2.5204028889 -5.3477890193 
-2.0959306286 2.7087500879 -5.365801979 -2.2633102792 2.8933902522 -5.385602541 -2.4178782198 3.0885612485 -5.4083409222 
-2.5479432722 3.3001525355 -5.43684021 -2.6787178666 3.5102060499 -5.4725547247 -2.8107433098 3.7194501556 -5.5084181681 
-2.9413858908 3.9308341965 -5.5357915725 -3.0679742596 4.1429310387 -5.574396163 -3.2382620752 4.3194711085 -5.6227248669 
-3.4034421657 4.4981947511 -5.679938478 -3.5627383883 4.6713598955 -5.7644283958 -3.7260812147 4.8202216789 -5.8813013633 
-3.8851823596 4.9781299918 -5.9919891692 -4.0318882388 5.1192579924 -6.1371107474 -4.1776034972 5.267674107 -6.2758180666 
-4.3006385034 5.4063912843 -6.4435080543 -4.3993083167 5.5617470301 -6.612708705 -4.4888422999 5.7516090069 -6.7484882896 
-4.5691850661 5.9608949852 -6.8591427934 -4.6250139927 6.1476728782 -7.0152628647 -2.0326142165 2.9638917436 -6.2331597129 
-1.8379661322 2.9856981232 -6.3885193121 -1.6391598511 3.01010672 -6.5381197233 -1.4501474801 3.0433683747 -6.6983320385 
-1.259729815 3.1333976635 -6.8330014113 -1.0836211307 3.1947706356 -6.9994919203 -0.90834424086 3.2595978692 -7.1655504693 
-0.7571583047 3.3005064676 -7.3604075946 -0.60996519126 3.3440873206 -7.5577268704 -0.49002972453 3.3894289805 -7.7723419158 
-0.36913794691 3.4240836293 -7.988407261 -0.25986560906 3.4360709529 -8.212942025 -0.15574965957 3.4430170546 -8.4401239362 
-0.037148734201 3.3980559853 -8.65555913 0.11474077309 3.3523152081 -8.8487879034 0.25761539666 3.307527632 -9.0489900887 
0.37134473956 3.3170620605 -9.2714192487 0.45184428968 3.4066055838 -9.4905123337 0.52755006512 3.4859579188 -9.7151717258 
0.61963079677 3.5558990082 -9.9368232155 0.71155600796 3.6256716727 -10.158220968 -1.9618163346 3.4463146723 -7.10083102 
-2.0309726592 3.3358535308 -7.3141751996 -2.104616748 3.2322445112 -7.5294464686 -2.190188981 3.1546980797 -7.751175907 
-2.2976904794 3.0825969981 -7.9650563921 -2.3991063146 3.0081621014 -8.1810986901 -2.5152911443 2.932724715 -8.3892099249 
-2.6353777226 2.9151416721 -8.607773532 -2.7375207027 2.9036163259 -8.8356638083 -2.8064497636 2.8770738805 -9.0745032588 
-2.8451554793 2.8922226211 -9.3210238122 -2.8645235536 2.9469414014 -9.5641919285 -2.8916055665 2.9711691852 -9.8115369892 
-2.9352780296 2.950425028 -10.056817229 -2.9962578971 2.9862888521 -10.296598883 -3.0614373976 3.0026472426 -10.537397629 
-3.1480640416 3.0173237865 -10.77144981 -3.2331271899 3.0370317538 -11.005705774 -3.288509663 3.025893663 -11.249239601 
-3.320897827 3.0297427036 -11.497102853 -3.3208786737 3.0038642036 -11.745309351 -2.0235998482 3.9580476516 -7.9547512915 
-1.8641792939 4.1284428016 -8.0444763141 -1.703088157 4.2983186837 -8.1321793946 -1.5312487767 4.4435719007 -8.2411414537 
-1.3581433132 4.5892239683 -8.3475368188 -1.1862146091 4.7158958043 -8.4775166889 -1.0186464144 4.8089534404 -8.6380195752 
-0.86800983641 4.8930373924 -8.8189574385 -0.72884017182 4.9763139347 -9.0092120626 -0.59088419752 5.0655988889 -9.1976168027 
-0.45467165021 5.1541236562 -9.3876418208 -0.32760832179 5.2513809607 -9.5797249468 -0.20178605879 5.3528466093 -9.770443274 
-0.086646172337 5.4573309696 -9.9662131005 0.03316044533 5.5673355231 -10.15606929 0.1539268129 5.6761187869 -10.346021089 
0.26904779452 5.7614038547 -10.550895726 0.38126424888 5.8387279751 -10.76048687 0.52095386486 5.9122322598 -10.954352626 
0.65941290954 5.9812120167 -11.150747346 0.83217367741 6.082715558 -11.299200735 -2.0611579752 4.4358891617 -8.8240748816 
-2.2749039929 4.4474172946 -8.9532249573 -2.4981042812 4.4241463158 -9.0634070468 -2.7250734602 4.4038012478 -9.1662227557 
-2.9418091811 4.3703748547 -9.2862573487 -3.1667417949 4.3351481088 -9.3895259095 -3.3871943636 4.2952164277 -9.5004588882 
-3.6033343095 4.2456788972 -9.6159125883 -3.8152564157 4.1965541869 -9.7391026194 -4.0309626123 4.1245192607 -9.8429380958 
-4.2473437712 4.0832631956 -9.9611630135 -4.4655861722 4.0789046166 -10.083028748 -4.6819146229 4.0739012266 -10.208236445 
-4.9124821926 4.0776730423 -10.304799219 -5.1348570088 4.0688567566 -10.418692652 -5.3596202142 4.1049321565 -10.522037062 
[...]
CELL_DATA 451
SCALARS solution%20variable double
LOOKUP_TABLE default
7625.5164713 7383.2616285 7134.214063 6876.2118886 6669.596866 6455.3313908 6233.7663582 6004.0919986 5821.2180064 
5631.4820079 5435.1892667 5231.6000579 5070.3303821 4902.9401581 4729.6943909 4549.9224943 4408.1614419 4260.9682478 
4108.5726568 3950.3708607 3826.0989309 3697.026419 3563.3523601 3424.5361795 3315.8383634 3202.9130171 3085.932547 
2964.415184 2869.5008371 2770.87365 2668.6830197 2562.5009606 2479.7150607 2393.6741648 2304.507845 2211.8365257 
2139.6631061 2064.6381066 1986.8740613 1906.0342562 1843.0927825 1777.6515365 1709.8084421 1639.2640112 1584.2999936 
1527.1391261 1467.866814 1406.2150527 1358.0847871 1308.0136722 1256.0763338 1202.0302033 1159.6783292 1115.5948083 
1069.8447438 1022.2041131 984.62808327 945.47772823 904.80613729 862.39522347 828.57193764 793.25416183 756.48176424 
718.02808175 687.1252576 654.73448424 620.87517025 585.28777187 559.15451261 531.7658816 503.13833863 473.04121788 
441.16679467 407.08916808 370.18974985 31.013079681 6744.3313858 6609.4159135 6471.7231292 6331.0713581 6187.2583172 
6040.0576873 5889.2149145 5734.4420184 5575.4111058 5411.746169 5243.0125819 5068.7034494 4888.2215769 4700.8552057 
4505.7446628 4301.8353807 4087.809793 3861.9851858 3622.1540623 669.60994481 5884.064196 5761.1558528 5635.6040933 
5507.2276317 5375.8235839 5241.1636852 5102.9896106 4961.007123 4814.8786715 4664.2139028 4508.5573214 4347.3719742 
4180.0174713 4005.7197398 3823.5283551 3632.2545837 3430.3782674 3215.9019497 2986.1103375 596.6158435 5123.1286151 
5011.9573018 4898.3021377 4781.9854953 4662.8076466 4540.5427122 4414.9336019 4285.6856233 4152.4583019 4014.8547605 
3872.4077037 3724.5605804 3570.6417232 3409.8279775 3241.0920673 3063.1238212 2874.2073846 2672.0200178 2453.2809149 
529.09662806 4452.5439039 4352.6650907 4250.4811025 4145.8209369 4038.4914961 3928.2733718 3814.9155374 3698.128578 
3577.575934 3452.8623972 3323.5187232 3188.98063 3048.5594522 2901.4000042 2746.4180958 2582.2042227 2406.867934 
2217.7709767 2011.0332179 467.15784057 3863.4822519 3774.304328 3683.011888 3589.4430127 3493.4141696 3394.715947 
3293.1076397 3188.310286 3079.9975755 2967.7837755 2851.2073842 2729.7085034 2602.5967042 2469.0039915 2327.8134382 
2177.5460731 2016.171621 1840.7691434 1646.859967 410.78635338 3347.4307596 3268.2508563 3187.1521837 3103.9837376 
3018.5737924 2930.7256897 2840.2124593 2746.769849 2650.0871473 2549.7948806 2445.4479742 2336.5021516 2222.2799197 
2101.9199093 1974.2983756 1837.9015125 1690.6046788 1529.2591011 1348.8297564 359.85273897 2896.3205257 2826.3638329 
2754.6831935 2681.1397029 2605.5749444 2527.8069263 2447.6248614 2364.7823589 2278.9883963 2189.8951155 2097.0809604 
2000.0267821 1898.0809503 1790.4065792 1675.8981929 1553.0429403 1419.6732469 1272.4845925 1105.969933 314.127124 
2502.6150781 2441.0723061 2377.9947376 2313.2561578 2246.7122706 2178.1968559 2107.5168075 2034.4456276 1958.7147456 
1880.0016995 1797.9136738 1711.9639453 1621.5371042 1525.8357243 1423.7947333 1313.9357734 1194.1004207 1060.9102369 
908.50645969 273.29610292 2159.3583982 2105.4177863 2050.122495 1993.3590979 1934.9976475 1874.8881036 1812.8557036 
1748.6948632 1682.160995 1612.9593041 1540.7290703 1465.0209775 1385.2633102 1300.7095088 1210.3527275 1112.7778026 
1005.8833936 886.30022217 747.95255577 236.97451222 1860.1884155 1813.0617837 1764.7495963 1715.1509519 1664.1500426 
1611.6128852 1557.3830704 1501.276141 1443.0720171 1382.5045708 1319.2469149 1252.8900359 1182.9106728 1108.620978 
1029.0854762 942.97487251 848.28152237 741.71314141 617.13171698 204.72808536 1599.3175749 1558.2586113 1516.171485 
1472.9673277 1428.5439761 1382.7830227 1335.5459695 1286.6691249 1235.956703 1183.1712852 1128.0202956 1070.1362429 
1009.0468115 944.12759276 874.51928671 798.98847297 715.6516707 621.36233234 510.06354256 176.06941233 1371.4901281 
1335.8079257 1299.2436207 1261.7197963 1223.1473154 1183.4226963 1142.424682 1100.0096768 1056.0055574 1010.2030887 
962.34370343 912.09898561 859.04439503 802.61592155 742.0361138 676.18041828 603.31167699 520.47726418 421.82514485 
150.43395663 1171.912388 1140.9809313 1109.3035171 1076.8136547 1043.4346607 1009.0773599 973.63707434 936.98785254 
898.97776452 859.4217034 818.09032072 774.69370979 728.8564247 680.0774444 627.66223915 570.5987098 507.30714314 
435.06015852 348.30374093 127.05353725 996.15240331 969.42130331 942.07099543 914.04358566 885.27216829 855.6787744 
825.17167894 793.6418026 760.95780606 726.95924366 691.44674618 654.16748591 614.79281515 572.88221259 527.82163854 
478.70982301 424.1258792 361.5789664 285.85843685 104.486169 839.92824593 816.89719204 793.3575396 769.26085596 
744.55096685 719.16217437 693.01691364 666.02261521 638.06741679 609.01416132 578.691761 546.88235824 513.30147282 
477.56579039 439.13764009 397.22147426 350.54913111 296.85972769 231.27819096 78.174040551 697.98003129 677.42192273 
656.40721324 634.88948227 612.81418374 590.11662569 566.71926353 542.52799754 517.42698599 491.27117291 463.87516213 
434.9959803 404.30503951 371.33965125 335.41222389 295.42072098 249.38515029 192.97765877 73.873960062 560.8686142 
535.36395242 508.80086142 480.9978355 451.7183569 420.64479188 387.33381418 351.13430591 311.01992451 265.19378783 
209.90942602 48.264037347 7710.5852624 7794.6371959 7877.8586126 7960.276234 8041.915432 8122.8003221 8202.9538486 
8282.3978628 8361.1531945 8439.2397173 8516.6764087 8593.4814061 8669.6720574 8745.2649684 8820.2760462 8892.4803074 
8964.2659027 9035.5471415 9106.3363559 9176.6454123 9246.4857362 9315.8683341 9384.8038149 9440.6731195 9496.3343779 
9551.7371249 9606.8861889 9661.7862653 9716.4419215 9770.8576014 9825.0376302 9856.8243555 9888.5917681 9920.3232748 
9952.0194139 9983.6807152 10015.3077 10046.900882 10078.460767 10078.459898 8955.0230263 10167.202993 11189.84788 
12003.081445 
