# vtk DataFile Version 5.1
vtk output
ASCII
DATASET UNSTRUCTURED_GRID
POINTS 474 double
0 0 -3 -0.11344901018 0.17758382911 -3.1345113591 -0.25315847539 0.33878440002 -3.2648786912 
-0.38126193464 0.50363826191 -3.4024021726 -0.5126230829 0.66576812132 -3.5400907975 -0.65843420624 0.83063257984 -3.6586607204 
-0.82297351213 0.96639713451 -3.7890248355 -0.97532665543 1.1205572503 -3.9136168835 -1.1248934303 1.2712178784 -4.0456439831 
-1.260480867 1.4416481412 -4.1684021702 -1.3678821889 1.6074581306 -4.3216079256 -1.4660695894 1.784059061 -4.4688198332 
-1.5694943891 1.9404801104 -4.6341551474 -1.6843141616 2.0801145574 -4.8068358964 -1.7920938126 2.214324268 -4.9881403376 
-1.8953148049 2.3800598251 -5.1442721788 -1.9325266326 2.5204028889 -5.3477890193 -1.973129178 2.6634701459 -5.548744719 
-1.9865147688 2.7616205381 -5.7782819197 -2.0072616269 2.8605132642 -6.0069515429 -2.0326142165 2.9638917436 -6.2331597129 
-1.9920842053 3.0592208557 -6.4606892244 -1.9658829099 3.1812169213 -6.6773235986 -1.95489032 3.3115244098 -6.8903942944 
-1.9618163346 3.4463146723 -7.10083102 -1.9595558315 3.5807523934 -7.3115948434 -1.9591600912 3.7034011527 -7.5294414069 
-1.9922335507 3.8261433401 -7.744709848 -2.0235998482 3.9580476516 -7.9547512915 -2.053410198 4.0821397433 -8.16972221 
-2.0922570198 4.2101350542 -8.380928566 -2.0673262565 4.3390293584 -8.5936836256 -2.0611579752 4.4358891617 -8.8240748816 
-2.0457609566 4.5389463916 -9.0513239502 -2.0376118219 4.6474567449 -9.2763997037 -2.0620327306 4.7344755807 -9.5094905474 
-2.0678249667 4.7919692102 -9.7527207523 -2.0538188065 4.7894724803 -10.002315612 -2.061454029 4.7954964511 -10.25212637 
-2.0748719743 4.7792135014 -10.501234428 -2.0879807121 4.7450832286 -10.748546549 -2.1011430636 4.7103243177 -10.995768253 
-2.1002295418 4.7008537725 -11.245587136 -2.1048346881 4.6894878057 -11.495286169 -2.0641472069 4.6880886783 -11.741949039 
-2.0210511199 4.6768675797 -11.987950694 -1.9835084387 4.6483785121 -12.233468351 -1.9506827239 4.6230643942 -12.480007736 
-1.9004712217 4.6381689642 -12.724447211 -1.8375331244 4.6537107888 -12.96589544 -1.7745908329 4.6759472614 -13.206818265 
-1.7324654219 4.637703043 -13.450257845 -1.6671038275 4.5609504363 -13.679030438 -1.598399743 4.4811403079 -13.905768376 
-1.5362405788 4.3949975328 -14.132077148 -1.4802902991 4.3079524624 -14.359657292 -1.4132617365 4.2082396067 -14.578893508 
-1.3346237404 4.1025622853 -14.791374964 -1.2639046148 4.0215870271 -15.017077895 -1.1811068059 3.9440623254 -15.239865784 
-1.0986307142 3.8389919159 -15.45118995 -0.9637992344 3.7108445705 -15.618219079 -0.83607035007 3.5887696699 -15.795089231 
-0.67316557472 3.4694079904 -15.942448736 -0.49469270494 3.3540019539 -16.074087946 -0.32610371771 3.2396122859 -16.218976721 
-0.14820477506 3.1356714575 -16.360568636 0.012364935668 3.0233302117 -16.515800116 0.1549159304 2.9000749565 -16.680078405 
0.27000396814 2.7652117596 -16.856335778 0.3829086188 2.6314831379 -17.034855232 0.49747072388 2.4976228367 -17.212216287 
0.60083379182 2.4004242314 -17.418052405 0.66797056282 2.2936634265 -17.633910656 0.75017747883 2.1834571348 -17.842708636 
0.82913521304 2.0737203209 -18.053002496 0.84139766799 2.0604437881 -18.08156333 -0.5126230829 0.66576812132 -3.5400907975 
-0.52277406038 0.77956108233 -3.7624601292 -0.53449030145 0.89788545023 -3.982373916 -0.53515452505 1.0082199251 -4.2067081811 
-0.53644590475 1.1144897642 -4.4329935178 -0.53696454607 1.2507070137 -4.6426231721 -0.51878168185 1.3625180934 -4.8654856093 
-0.50273855675 1.4613674127 -5.0945520412 -0.49082816941 1.5488159746 -5.328455636 -0.53649707025 1.6336061495 -5.5591610277 
-0.58531137867 1.7180366746 -5.7893536638 -0.67092791921 1.7968155302 -6.0106310912 -0.74962718774 1.8695191762 -6.2365085027 
-0.83361798078 1.9305568324 -6.4639287111 -0.91700232593 1.9931029055 -6.6911621587 -0.9753928223 2.0369035191 -6.930268947 
-1.0475750197 2.0677300162 -7.1676282894 -1.1009443958 2.0963864931 -7.4101783173 -1.0913733021 2.1254249614 -7.6583015962 
-1.0949643175 2.1422303757 -7.9077102622 -1.0664266342 2.165504346 -8.1548653099 -1.1248934303 1.2712178784 -4.0456439831 
-1.3701105494 1.2938911888 -4.0025802454 -1.6157087444 1.3095406912 -3.9585732041 -1.8617989566 1.2971902892 -3.9162993943 
-2.1048102068 1.2871864009 -3.8584594899 -2.3536918581 1.2700404026 -3.8422133105 -2.6027259385 1.2509731012 -3.853097466 
-2.8484396668 1.2518422052 -3.8991844311 -3.0916583036 1.2465957369 -3.9567793032 -3.3338077351 1.2274596438 -4.0159186538 
-3.5641759617 1.2403219499 -4.1121737381 -3.7912733809 1.2235452575 -4.2153498243 -4.0204382622 1.2355273717 -4.3145460244 
-4.2478450942 1.2493184055 -4.4174826076 -4.4834828557 1.2739945955 -4.4972693924 -4.7217834282 1.3027450896 -4.567171082 
-4.9607669071 1.3311838138 -4.6348330046 -5.199558466 1.3700473821 -4.6978267701 -5.4302756926 1.4046385181 -4.7876767264 
-5.6506628044 1.4263130494 -4.9036928272 -5.8669179291 1.4821841882 -5.0156676629 -1.5694943891 1.9404801104 -4.6341551474 
-1.4895185985 2.1771164887 -4.6238063594 -1.381831314 2.3982210442 -4.5789039731 -1.2633369749 2.613011121 -4.5306928281 
-1.1462127147 2.8284302862 -4.4819435621 -1.0110186488 3.0229077887 -4.4019369025 -0.87475765502 3.2163027526 -4.3211202613 
-0.70885179817 3.3900448113 -4.2519180669 -0.54644443097 3.5633239055 -4.1738270778 -0.35505468441 3.7110359584 -4.1101787129 
-0.1483501848 3.8487343787 -4.0816761715 0.067808343634 3.9732436541 -4.0651555501 0.28749992486 4.0913120878 -4.0479667714 
0.50374755256 4.2143802933 -4.0236525716 0.73000447932 4.3146703998 -3.988301509 0.94938943915 4.4138568734 -3.9209792775 
1.1649049221 4.5245782177 -3.8593849555 1.3613181123 4.6701551205 -3.8071429788 1.5518888171 4.8233410947 -3.7550194358 
1.7445140987 4.9527028979 -3.6619548088 1.9520510821 5.0706612644 -3.5883375689 -1.9325266326 2.5204028889 -5.3477890193 
-2.0959306286 2.7087500879 -5.365801979 -2.2633102792 2.8933902522 -5.385602541 -2.4178782198 3.0885612485 -5.4083409222 
-2.5479432722 3.3001525355 -5.43684021 -2.6787178666 3.5102060499 -5.4725547247 -2.8107433098 3.7194501556 -5.5084181681 
-2.9413858908 3.9308341965 -5.5357915725 -3.0679742596 4.1429310387 -5.574396163 -3.2382620752 4.3194711085 -5.6227248669 
-3.4034421657 4.4981947511 -5.679938478 -3.5627383883 4.6713598955 -5.7644283958 -3.7260812147 4.8202216789 -5.8813013633 
-3.8851823596 4.9781299918 -5.9919891692 -4.0318882388 5.1192579924 -6.1371107474 -4.1776034972 5.267674107 -6.2758180666 
-4.3006385034 5.4063912843 -6.4435080543 -4.3993083167 5.5617470301 -6.612708705 -4.4888422999 5.7516090069 -6.7484882896 
-4.5691850661 5.9608949852 -6.8591427934 -4.6250139927 6.1476728782 -7.0152628647 -2.0326142165 2.9638917436 -6.2331597129 
-1.8379661322 2.9856981232 -6.3885193121 -1.6391598511 3.01010672 -6.5381197233 -1.4501474801 3.0433683747 -6.6983320385 
-1.259729815 3.1333976635 -6.8330014113 -1.0836211307 3.1947706356 -6.9994919203 -0.90834424086 3.2595978692 -7.1655504693 
-0.7571583047 3.3005064676 -7.3604075946 -0.60996519126 3.3440873206 -7.5577268704 -0.49002972453 3.3894289805 -7.7723419158 
-0.36913794691 3.4240836293 -7.988407261 -0.25986560906 3.4360709529 -8.212942025 -0.15574965957 3.4430170546 -8.4401239362 
-0.037148734201 3.3980559853 -8.65555913 0.11474077309 3.3523152081 -8.8487879034 0.25761539666 3.307527632 -9.0489900887 
0.37134473956 3.3170620605 -9.2714192487 0.45184428968 3.4066055838 -9.4905123337 0.52755006512 3.4859579188 -9.7151717258 
0.61963079677 3.5558990082 -9.9368232155 0.71155600796 3.6256716727 -10.158220968 -1.9618163346 3.4463146723 -7.10083102 
-2.0309726592 3.3358535308 -7.3141751996 -2.104616748 3.2322445112 -7.5294464686 -2.190188981 3.1546980797 -7.751175907 
-2.2976904794 3.0825969981 -7.9650563921 -2.3991063146 3.0081621014 -8.1810986901 -2.5152911443 2.932724715 -8.3892099249 
-2.6353777226 2.9151416721 -8.607773532 -2.7375207027 2.9036163259 -8.8356638083 -2.8064497636 2.8770738805 -9.0745032588 
-2.8451554793 2.8922226211 -9.3210238122 -2.8645235536 2.9469414014 -9.5641919285 -2.8916055665 2.9711691852 -9.8115369892 
-2.9352780296 2.950425028 -10.056817229 -2.9962578971 2.9862888521 -10.296598883 -3.0614373976 3.0026472426 -10.537397629 
-3.1480640416 3.0173237865 -10.77144981 -3.2331271899 3.0370317538 -11.005705774 -3.288509663 3.025893663 -11.249239601 
-3.320897827 3.0297427036 -11.497102853 -3.3208786737 3.0038642036 -11.745309351 -2.0235998482 3.9580476516 -7.9547512915 
-1.8641792939 4.1284428016 -8.0444763141 -1.703088157 4.2983186837 -8.1321793946 -1.5312487767 4.4435719007 -8.2411414537 
-1.3581433132 4.5892239683 -8.3475368188 -1.1862146091 4.7158958043 -8.4775166889 -1.0186464144 4.8089534404 -8.6380195752 
-0.86800983641 4.8930373924 -8.8189574385 -0.72884017182 4.9763139347 -9.0092120626 -0.59088419752 5.0655988889 -9.1976168027 
-0.45467165021 5.1541236562 -9.3876418208 -0.32760832179 5.2513809607 -9.5797249468 -0.20178605879 5.3528466093 -9.770443274 
-0.086646172337 5.4573309696 -9.9662131005 0.03316044533 5.5673355231 -10.15606929 0.1539268129 5.6761187869 -10.346021089 
0.26904779452 5.7614038547 -10.550895726 0.38126424888 5.8387279751 -10.76048687 0.52095386486 5.9122322598 -10.954352626 
0.65941290954 5.9812120167 -11.150747346 0.83217367741 6.082715558 -11.299200735 -2.0611579752 4.4358891617 -8.8240748816 
-2.2749039929 4.4474172946 -8.9532249573 -2.4981042812 4.4241463158 -9.0634070468 -2.7250734602 4.4038012478 -9.1662227557 
-2.9418091811 4.3703748547 -9.2862573487 -3.1667417949 4.3351481088 -9.3895259095 -3.3871943636 4.2952164277 -9.5004588882 
-3.6033343095 4.2456788972 -9.6159125883 -3.8152564157 4.1965541869 -9.7391026194 -4.0309626123 4.1245192607 -9.8429380958 
-4.2473437712 4.0832631956 -9.9611630135 -4.4655861722 4.0789046166 -10.083028748 -4.6819146229 4.0739012266 -10.208236445 
-4.9124821926 4.0776730423 -10.304799219 -5.1348570088 4.0688567566 -10.418692652 -5.3596202142 4.1049321565 -10.522037062 
[...]
CELL_DATA 451
SCALARS solution%20variable double
LOOKUP_TABLE default
7626.5831798 7384.3117044 7135.2470884 6877.2274815 6670.597949 6456.3175646 6234.7372403 6005.0472453 5822.1607296 
5632.4118685 5436.1059379 5232.5032622 5071.2233858 4903.8227108 4730.5662493 4550.7834802 4409.0149459 4261.8141418 
4109.4108136 3951.2012411 3826.9250294 3697.8482691 3564.1699895 3425.3497347 3316.6514336 3203.725844 3086.7453586 
2965.2283675 2870.318075 2771.6954466 2669.509855 2563.3335259 2480.5571242 2394.526554 2305.3713474 2212.7122058 
2140.5547784 2065.5469819 1987.8012882 1906.9813395 1844.0634635 1778.6474572 1710.8311485 1640.3154984 1585.3836414 
1528.2570171 1469.020884 1407.4077884 1359.3186178 1309.2910478 1257.3994813 1203.4020013 1161.0991546 1117.0672453 
1071.3710447 1023.7872632 986.26448636 947.1697011 906.55553971 864.20470928 830.43009381 795.16198693 758.43963409 
720.03711862 689.16497924 656.80299881 622.96976465 587.40623937 561.29469297 533.92244121 505.30464429 475.21049743 
443.33240671 409.24514571 372.33196247 31.112946976 6745.3395434 6610.4162683 6472.7152945 6332.0549434 6188.2329295 
6041.0229322 5890.1703981 5735.3873501 5576.3459016 5412.6700566 5243.9252073 5069.6044869 4889.1107419 4701.7322753 
4506.6095039 4302.6879944 4088.6503815 3862.8142615 3622.9726294 669.6994113 5885.0116424 5762.0950711 5636.5346362 
5508.1490437 5376.7354026 5242.0654416 5103.8808308 4961.88733 4815.747388 4665.0706556 4509.4016474 4348.2034294 
4180.8356443 4006.5242722 3824.318973 3633.0311474 3431.140853 3216.6509878 2986.8468637 596.70465314 5124.0237819 
5012.8439402 4899.1797356 4782.8535282 4663.6655774 4541.3899917 4415.7696693 4286.5099071 4153.2702218 4015.6537303 
3873.1931363 3725.331895 3571.3983579 3410.5694081 3241.8178397 3063.8336042 2874.9010629 2672.6978616 2453.94391 
529.18494199 4453.3967408 4353.5092214 4251.3159454 4146.6458931 4039.3059486 3929.0766848 3815.7070562 3698.9076285 
3578.3418234 3453.6144151 3324.2561445 3189.7027199 3049.2654755 2902.0892422 2747.0898749 2582.8579673 2407.503266 
2218.3879105 2011.632578 467.24607135 3864.3044867 3775.1177878 3683.8159146 3590.2369252 3494.1972629 3395.4874903 
3293.8668749 3189.0564263 3080.7298041 2968.5012449 2851.909216 2730.3937904 2603.2645155 2469.6533838 2328.4434794 
2178.1558889 2016.7604933 1841.3367219 1647.4067703 410.87524747 3348.2362736 3269.0476176 3187.9394453 3104.7607242 
3019.3396976 2931.4796736 2840.9536461 2747.4973236 2650.7999524 2550.4920129 2446.1283819 2337.1647316 2222.9235179 
2102.543324 1974.9003722 1838.4808592 1691.1602331 1529.7900233 1349.3360797 359.94347274 2897.1258669 2827.1605207 
2755.4703727 2681.9164826 2606.3403952 2528.5600769 2448.3646939 2365.5078048 2279.6983306 2190.5883506 2097.7562397 
2000.6827721 1898.716234 1791.0196508 1676.4874592 1553.6067389 1420.2099103 1272.9926424 1106.4486892 314.22139924 
2503.440116 2441.8888789 2378.8018503 2314.0527715 2247.4972985 2178.9691586 2108.2751874 2035.1888222 1959.4414195 
1880.7104353 1798.6029606 1712.6321657 1622.182519 1526.4564559 1424.3887502 1314.5008842 1194.6343027 1061.4105851 
908.97158776 273.3963257 2160.2270544 2106.2783128 2050.9737093 1994.1997628 1935.8264658 1875.7037121 1813.6566656 
1749.4796597 1682.9280137 1613.706826 1541.4552537 1465.7238373 1385.940693 1301.3590619 1210.9718617 1113.3636535 
1006.4327991 886.80979389 748.41925024 237.08395968 1861.1293255 1813.9951856 1765.6740492 1716.0649453 1665.0519894 
1612.5011141 1558.2558161 1502.1315321 1443.9080623 1383.31914 1320.0377169 1253.6545889 1183.6462666 1109.3246244 
1029.7538441 943.60420476 848.86758931 742.25116178 617.6167242 204.85108447 1600.3644069 1559.2991381 1517.2039056 
1473.9897498 1429.554407 1383.7793592 1336.5259853 1287.6304552 1236.8968251 1184.0874945 1128.9096737 1070.995617 
1009.8726998 944.91613043 875.26618313 799.68882627 716.29978033 621.9514834 510.58607075 176.21162298 1372.6809397 
1336.99473 1300.4241131 1262.8915474 1224.3077598 1184.5691189 1143.5542016 1101.1192256 1057.0918552 1011.26261 
963.37263445 913.09324057 859.99948037 803.52683359 742.89719281 676.98513429 604.0523091 521.1444345 422.40739023 
150.60241133 1173.2871183 1142.3559222 1110.6757642 1078.1799759 1044.7916815 1010.4214949 974.96450565 938.29459241 
900.25954322 860.67392715 819.30801669 775.87145249 729.98823494 681.15664654 628.68125246 571.54873116 508.17764403 
435.83806492 348.97225138 127.25632632 997.74688288 971.023767 943.67759562 915.65022375 886.87447585 857.27209054 
826.75102263 795.20183839 762.49280073 728.46301042 692.91257129 655.58802975 616.15997522 574.1869275 529.05359648 
479.85700781 425.17382364 362.50945255 286.6472652 104.7300228 841.76504799 818.75717673 795.23576904 771.15200563 
746.44929872 721.06150521 694.91057698 667.90341487 639.92756875 610.84521949 580.48452011 548.62672321 514.98627784 
479.17853928 440.6641185 398.64514169 351.85011249 298.01304543 232.25079181 78.448579534 700.03252068 679.51263717 
658.52967349 637.03657835 614.97812669 592.28889106 568.89052377 544.68803907 519.56460471 493.37403863 465.92963678 
436.98686497 406.21520747 373.14948849 337.09872278 296.95589364 250.73294942 194.08715602 74.251834037 562.9817549 
537.46269821 510.87473823 483.0353891 453.70700631 422.57063454 389.18136463 352.88615125 312.65632325 266.69253899 
211.24861645 48.487254153 7711.657804 7795.7151346 7878.9415218 7961.3636966 8043.0070398 8123.8956754 8204.0525562 
8283.4995417 8362.2574694 8440.3462202 8517.7847795 8594.5912914 8670.783111 8746.3768506 8821.3884242 8893.5930715 
8965.3787137 9036.6596777 9107.4483015 9177.7564578 9247.5955777 9316.9766736 9385.91036 9441.7790074 9497.4392771 
9552.8407169 9607.9881606 9662.8863089 9717.5397341 9771.9528855 9826.1300932 9857.9161113 9889.682479 9921.4126095 
9953.1070446 9984.7663177 10016.390954 10047.98147 10079.538376 10079.537522 8956.122396 10168.222655 11190.796959 
12003.965892 
