# vtk DataFile Version 5.1
vtk output
ASCII
DATASET UNSTRUCTURED_GRID
POINTS 474 double
0 0 -3 -0.11344901018 0.17758382911 -3.1345113591 -0.25315847539 0.33878440002 -3.2648786912 
-0.38126193464 0.50363826191 -3.4024021726 -0.5126230829 0.66576812132 -3.5400907975 -0.65843420624 0.83063257984 -3.6586607204 
-0.82297351213 0.96639713451 -3.7890248355 -0.97532665543 1.1205572503 -3.9136168835 -1.1248934303 1.2712178784 -4.0456439831 
-1.260480867 1.4416481412 -4.1684021702 -1.3678821889 1.6074581306 -4.3216079256 -1.4660695894 1.784059061 -4.4688198332 
-1.5694943891 1.9404801104 -4.6341551474 -1.6843141616 2.0801145574 -4.8068358964 -1.7920938126 2.214324268 -4.9881403376 
-1.8953148049 2.3800598251 -5.1442721788 -1.9325266326 2.5204028889 -5.3477890193 -1.973129178 2.6634701459 -5.548744719 
-1.9865147688 2.7616205381 -5.7782819197 -2.0072616269 2.8605132642 -6.0069515429 -2.0326142165 2.9638917436 -6.2331597129 
-1.9920842053 3.0592208557 -6.4606892244 -1.9658829099 3.1812169213 -6.6773235986 -1.95489032 3.3115244098 -6.8903942944 
-1.9618163346 3.4463146723 -7.10083102 -1.9595558315 3.5807523934 -7.3115948434 -1.9591600912 3.7034011527 -7.5294414069 
-1.9922335507 3.8261433401 -7.744709848 -2.0235998482 3.9580476516 -7.9547512915 -2.053410198 4.0821397433 -8.16972221 
-2.0922570198 4.2101350542 -8.380928566 -2.0673262565 4.3390293584 -8.5936836256 -2.0611579752 4.4358891617 -8.8240748816 
-2.0457609566 4.5389463916 -9.0513239502 -2.0376118219 4.6474567449 -9.2763997037 -2.0620327306 4.7344755807 -9.5094905474 
-2.0678249667 4.7919692102 -9.7527207523 -2.0538188065 4.7894724803 -10.002315612 -2.061454029 4.7954964511 -10.25212637 
-2.0748719743 4.7792135014 -10.501234428 -2.0879807121 4.7450832286 -10.748546549 -2.1011430636 4.7103243177 -10.995768253 
-2.1002295418 4.7008537725 -11.245587136 -2.1048346881 4.6894878057 -11.495286169 -2.0641472069 4.6880886783 -11.741949039 
-2.0210511199 4.6768675797 -11.987950694 -1.9835084387 4.6483785121 -12.233468351 -1.9506827239 4.6230643942 -12.480007736 
-1.9004712217 4.6381689642 -12.724447211 -1.8375331244 4.6537107888 -12.96589544 -1.7745908329 4.6759472614 -13.206818265 
-1.7324654219 4.637703043 -13.450257845 -1.6671038275 4.5609504363 -13.679030438 -1.598399743 4.4811403079 -13.905768376 
-1.5362405788 4.3949975328 -14.132077148 -1.4802902991 4.3079524624 -14.359657292 -1.4132617365 4.2082396067 -14.578893508 
-1.3346237404 4.1025622853 -14.791374964 -1.2639046148 4.0215870271 -15.017077895 -1.1811068059 3.9440623254 -15.239865784 
-1.0986307142 3.8389919159 -15.45118995 -0.9637992344 3.7108445705 -15.618219079 -0.83607035007 3.5887696699 -15.795089231 
-0.67316557472 3.4694079904 -15.942448736 -0.49469270494 3.3540019539 -16.074087946 -0.32610371771 3.2396122859 -16.218976721 
-0.14820477506 3.1356714575 -16.360568636 0.012364935668 3.0233302117 -16.515800116 0.1549159304 2.9000749565 -16.680078405 
0.27000396814 2.7652117596 -16.856335778 0.3829086188 2.6314831379 -17.034855232 0.49747072388 2.4976228367 -17.212216287 
0.60083379182 2.4004242314 -17.418052405 0.66797056282 2.2936634265 -17.633910656 0.75017747883 2.1834571348 -17.842708636 
0.82913521304 2.0737203209 -18.053002496 0.84139766799 2.0604437881 -18.08156333 -0.5126230829 0.66576812132 -3.5400907975 
-0.52277406038 0.77956108233 -3.7624601292 -0.53449030145 0.89788545023 -3.982373916 -0.53515452505 1.0082199251 -4.2067081811 
-0.53644590475 1.1144897642 -4.4329935178 -0.53696454607 1.2507070137 -4.6426231721 -0.51878168185 1.3625180934 -4.8654856093 
-0.50273855675 1.4613674127 -5.0945520412 -0.49082816941 1.5488159746 -5.328455636 -0.53649707025 1.6336061495 -5.5591610277 
-0.58531137867 1.7180366746 -5.7893536638 -0.67092791921 1.7968155302 -6.0106310912 -0.74962718774 1.8695191762 -6.2365085027 
-0.83361798078 1.9305568324 -6.4639287111 -0.91700232593 1.9931029055 -6.6911621587 -0.9753928223 2.0369035191 -6.930268947 
-1.0475750197 2.0677300162 -7.1676282894 -1.1009443958 2.0963864931 -7.4101783173 -1.0913733021 2.1254249614 -7.6583015962 
-1.0949643175 2.1422303757 -7.9077102622 -1.0664266342 2.165504346 -8.1548653099 -1.1248934303 1.2712178784 -4.0456439831 
-1.3701105494 1.2938911888 -4.0025802454 -1.6157087444 1.3095406912 -3.9585732041 -1.8617989566 1.2971902892 -3.9162993943 
-2.1048102068 1.2871864009 -3.8584594899 -2.3536918581 1.2700404026 -3.8422133105 -2.6027259385 1.2509731012 -3.853097466 
-2.8484396668 1.2518422052 -3.8991844311 -3.0916583036 1.2465957369 -3.9567793032 -3.3338077351 1.2274596438 -4.0159186538 
-3.5641759617 1.2403219499 -4.1121737381 -3.7912733809 1.2235452575 -4.2153498243 -4.0204382622 1.2355273717 -4.3145460244 
-4.2478450942 1.2493184055 -4.4174826076 -4.4834828557 1.2739945955 -4.4972693924 -4.7217834282 1.3027450896 -4.567171082 
-4.9607669071 1.3311838138 -4.6348330046 -5.199558466 1.3700473821 -4.6978267701 -5.4302756926 1.4046385181 -4.7876767264 
-5.6506628044 1.4263130494 -4.9036928272 -5.8669179291 1.4821841882 -5.0156676629 -1.5694943891 1.9404801104 -4.6341551474 
-1.4895185985 2.1771164887 -4.6238063594 -1.381831314 2.3982210442 -4.5789039731 -1.2633369749 2.613011121 -4.5306928281 
-1.1462127147 2.8284302862 -4.4819435621 -1.0110186488 3.0229077887 -4.4019369025 -0.87475765502 3.2163027526 -4.3211202613 
-0.70885179817 3.3900448113 -4.2519180669 -0.54644443097 3.5633239055 -4.1738270778 -0.35505468441 3.7110359584 -4.1101787129 
-0.1483501848 3.8487343787 -4.0816761715 0.067808343634 3.9732436541 -4.0651555501 0.28749992486 4.0913120878 -4.0479667714 
0.50374755256 4.2143802933 -4.0236525716 0.73000447932 4.3146703998 -3.988301509 0.94938943915 4.4138568734 -3.9209792775 
1.1649049221 4.5245782177 -3.8593849555 1.3613181123 4.6701551205 -3.8071429788 1.5518888171 4.8233410947 -3.7550194358 
1.7445140987 4.9527028979 -3.6619548088 1.9520510821 5.0706612644 -3.5883375689 -1.9325266326 2.5204028889 -5.3477890193 
-2.0959306286 2.7087500879 -5.365801979 -2.2633102792 2.8933902522 -5.385602541 -2.4178782198 3.0885612485 -5.4083409222 
-2.5479432722 3.3001525355 -5.43684021 -2.6787178666 3.5102060499 -5.4725547247 -2.8107433098 3.7194501556 -5.5084181681 
-2.9413858908 3.9308341965 -5.5357915725 -3.0679742596 4.1429310387 -5.574396163 -3.2382620752 4.3194711085 -5.6227248669 
-3.4034421657 4.4981947511 -5.679938478 -3.5627383883 4.6713598955 -5.7644283958 -3.7260812147 4.8202216789 -5.8813013633 
-3.8851823596 4.9781299918 -5.9919891692 -4.0318882388 5.1192579924 -6.1371107474 -4.1776034972 5.267674107 -6.2758180666 
-4.3006385034 5.4063912843 -6.4435080543 -4.3993083167 5.5617470301 -6.612708705 -4.4888422999 5.7516090069 -6.7484882896 
-4.5691850661 5.9608949852 -6.8591427934 -4.6250139927 6.1476728782 -7.0152628647 -2.0326142165 2.9638917436 -6.2331597129 
-1.8379661322 2.9856981232 -6.3885193121 -1.6391598511 3.01010672 -6.5381197233 -1.4501474801 3.0433683747 -6.6983320385 
-1.259729815 3.1333976635 -6.8330014113 -1.0836211307 3.1947706356 -6.9994919203 -0.90834424086 3.2595978692 -7.1655504693 
-0.7571583047 3.3005064676 -7.3604075946 -0.60996519126 3.3440873206 -7.5577268704 -0.49002972453 3.3894289805 -7.7723419158 
-0.36913794691 3.4240836293 -7.988407261 -0.25986560906 3.4360709529 -8.212942025 -0.15574965957 3.4430170546 -8.4401239362 
-0.037148734201 3.3980559853 -8.65555913 0.11474077309 3.3523152081 -8.8487879034 0.25761539666 3.307527632 -9.0489900887 
0.37134473956 3.3170620605 -9.2714192487 0.45184428968 3.4066055838 -9.4905123337 0.52755006512 3.4859579188 -9.7151717258 
0.61963079677 3.5558990082 -9.9368232155 0.71155600796 3.6256716727 -10.158220968 -1.9618163346 3.4463146723 -7.10083102 
-2.0309726592 3.3358535308 -7.3141751996 -2.104616748 3.2322445112 -7.5294464686 -2.190188981 3.1546980797 -7.751175907 
-2.2976904794 3.0825969981 -7.9650563921 -2.3991063146 3.0081621014 -8.1810986901 -2.5152911443 2.932724715 -8.3892099249 
-2.6353777226 2.9151416721 -8.607773532 -2.7375207027 2.9036163259 -8.8356638083 -2.8064497636 2.8770738805 -9.0745032588 
-2.8451554793 2.8922226211 -9.3210238122 -2.8645235536 2.9469414014 -9.5641919285 -2.8916055665 2.9711691852 -9.8115369892 
-2.9352780296 2.950425028 -10.056817229 -2.9962578971 2.9862888521 -10.296598883 -3.0614373976 3.0026472426 -10.537397629 
-3.1480640416 3.0173237865 -10.77144981 -3.2331271899 3.0370317538 -11.005705774 -3.288509663 3.025893663 -11.249239601 
-3.320897827 3.0297427036 -11.497102853 -3.3208786737 3.0038642036 -11.745309351 -2.0235998482 3.9580476516 -7.9547512915 
-1.8641792939 4.1284428016 -8.0444763141 -1.703088157 4.2983186837 -8.1321793946 -1.5312487767 4.4435719007 -8.2411414537 
-1.3581433132 4.5892239683 -8.3475368188 -1.1862146091 4.7158958043 -8.4775166889 -1.0186464144 4.8089534404 -8.6380195752 
-0.86800983641 4.8930373924 -8.8189574385 -0.72884017182 4.9763139347 -9.0092120626 -0.59088419752 5.0655988889 -9.1976168027 
-0.45467165021 5.1541236562 -9.3876418208 -0.32760832179 5.2513809607 -9.5797249468 -0.20178605879 5.3528466093 -9.770443274 
-0.086646172337 5.4573309696 -9.9662131005 0.03316044533 5.5673355231 -10.15606929 0.1539268129 5.6761187869 -10.346021089 
0.26904779452 5.7614038547 -10.550895726 0.38126424888 5.8387279751 -10.76048687 0.52095386486 5.9122322598 -10.954352626 
0.65941290954 5.9812120167 -11.150747346 0.83217367741 6.082715558 -11.299200735 -2.0611579752 4.4358891617 -8.8240748816 
-2.2749039929 4.4474172946 -8.9532249573 -2.4981042812 4.4241463158 -9.0634070468 -2.7250734602 4.4038012478 -9.1662227557 
-2.9418091811 4.3703748547 -9.2862573487 -3.1667417949 4.3351481088 -9.3895259095 -3.3871943636 4.2952164277 -9.5004588882 
-3.6033343095 4.2456788972 -9.6159125883 -3.8152564157 4.1965541869 -9.7391026194 -4.0309626123 4.1245192607 -9.8429380958 
-4.2473437712 4.0832631956 -9.9611630135 -4.4655861722 4.0789046166 -10.083028748 -4.6819146229 4.0739012266 -10.208236445 
-4.9124821926 4.0776730423 -10.304799219 -5.1348570088 4.0688567566 -10.418692652 -5.3596202142 4.1049321565 -10.522037062 
[...]
CELL_DATA 451
SCALARS solution%20variable double
LOOKUP_TABLE default
7626.8552978 7384.57958 7135.5106151 6877.4865618 6670.8533287 6456.5691418 6234.9849174 6005.2909347 5822.4012252 
5632.649084 5436.3397898 5232.7336799 5071.4512025 4904.0478627 4730.7886745 4551.0031333 4409.2326919 4262.0299481 
4109.6246478 3951.4130933 3827.1357911 3698.0579489 3564.3785946 3425.5573025 3316.8588797 3203.9332301 3086.9527428 
2965.4358487 2870.5265922 2771.9051286 2669.720824 2563.5459581 2480.7719803 2394.7440447 2305.5916734 2212.935638 
2140.7822887 2065.7788783 1988.0378628 1907.2229753 1844.3111123 1778.9015362 1711.0920503 1640.5837299 1585.6600605 
1528.5421519 1469.3152252 1407.7119664 1359.6332461 1309.616746 1257.736812 1203.7516922 1161.4612944 1117.4424851 
1071.7599506 1024.1905864 986.68130653 947.60059785 907.00097605 864.66534823 830.90304409 795.64749154 758.93777777 
720.54817376 689.68380216 657.32910443 623.50245994 587.94495897 561.83891441 534.47081098 505.85548106 475.76208553 
443.88306458 409.79336344 372.87669527 31.138244946 6745.5967271 6610.6714617 6472.9683988 6332.3058592 6188.4815564 
6041.2691697 5890.4141456 5735.6285081 5576.5843722 5412.9057447 5244.1580228 5069.8343465 4889.3375733 4701.9560215 
4506.8301311 4302.9055027 4088.8648227 3863.0257663 3623.1814539 669.72223342 5885.253342 5762.3346719 5636.772024 
5508.3841024 5376.9680141 5242.2954865 5104.1081881 4962.111878 4815.9690051 4665.289221 4509.617043 4348.4155419 
4181.0443689 4006.7295174 3824.520669 3633.2292587 3431.3353989 3216.8420783 2987.0347629 596.72730806 5124.2521492 
5013.0701321 4899.4036214 4783.074974 4663.8844464 4541.6061437 4415.9829612 4286.7201932 4153.4773541 4015.8575593 
3873.3935122 3725.5286696 3571.591388 3410.7585601 3242.0029976 3064.0146836 2875.0780345 2672.8707944 2454.1130554 
529.20747098 4453.6143152 4353.7245749 4251.5289298 4146.8563555 4039.5137316 3929.2816263 3815.9089891 3699.1063809 
3578.5372186 3453.8062718 3324.4442778 3189.8869424 3049.4455997 2902.2650847 2747.2612639 2583.0247562 2407.6653582 
2218.5453099 2011.7854949 467.26857986 3864.5142612 3775.3253239 3684.0210444 3590.4394751 3494.397053 3395.684334 
3294.060579 3189.2467899 3080.9166191 2968.6842949 2852.088277 2730.568631 2603.4348981 2469.8190679 2328.6042271 
2178.3114775 2016.9107395 1841.4815363 1647.5462854 410.89792619 3348.4417905 3269.2509018 3188.1403065 3104.9589645 
3019.5351111 2931.6720463 2841.1427544 2747.682934 2650.9818206 2550.669883 2446.3019856 2337.3337876 2223.0877315 
2102.7023889 1975.0539733 1838.6286824 1691.301987 1529.9254937 1349.4652751 359.96662208 2897.3313481 2827.3637949 
2755.6712217 2682.1146792 2606.5357022 2528.7522463 2448.5534662 2365.6929072 2279.8794761 2190.7652362 2097.9285447 
2000.8501564 1898.8783359 1791.1760863 1676.6378217 1553.7506044 1420.3468534 1273.122286 1106.5708599 314.24545365 
2503.6506291 2442.0972337 2379.0077927 2314.2560364 2247.6976087 2179.1662232 2108.4687008 2035.3784622 1959.6268454 
1880.8912853 1798.7788491 1712.8026801 1622.3472155 1526.6148553 1424.5403343 1314.6450938 1194.7705453 1061.5382727 
909.09029032 273.42189924 2160.448697 2106.4978834 2051.1909061 1994.41427 1936.0379523 1875.9118301 1813.8610484 
1749.6799196 1683.1237391 1613.8975783 1541.6405628 1465.9031967 1386.1135532 1301.5248224 1211.1298619 1113.5131624 
1006.5730101 886.93984247 748.53836022 237.1118882 1861.3693899 1814.2333379 1765.9099216 1716.2981522 1665.2821258 
1612.7277534 1558.4785077 1502.3497984 1444.121395 1383.5269956 1320.2395105 1253.8496872 1183.833978 1109.5041862 
1029.9244064 943.7648088 849.01715598 742.38847137 617.74051003 204.8824706 1600.6314558 1559.5645833 1517.4672876 
1474.2505855 1429.8121878 1384.0335484 1336.7760148 1287.8757213 1237.1366842 1184.3212563 1129.1365934 1071.214885 
1010.0834277 945.11733214 875.45676386 799.86753541 716.46516366 622.10182817 510.71942263 176.24790705 1372.9846328 
1337.2974065 1300.7251852 1263.1903952 1224.6037287 1184.8615162 1143.8422923 1101.402227 1057.3689305 1011.5328598 
963.63508587 913.34685139 860.24310438 803.75919452 743.11684714 677.19041667 604.24125068 521.31464427 422.55594642 
150.64537849 1173.6375602 1142.7064338 1111.0255793 1078.5282833 1045.1376205 1010.7641516 975.30290656 938.62772088 
900.58631075 860.9931627 819.61845265 776.17170594 730.27678192 681.43178567 628.94105181 571.79094746 508.39959464 
436.03641918 349.14273052 127.30802018 998.15308348 971.43199215 944.08686486 916.05949281 887.28263191 857.67794644 
827.15330989 795.59919846 762.88377398 728.84602194 693.28591223 655.94983218 616.50817725 574.51922342 529.36736264 
480.1491872 425.44073606 362.74646449 286.84822423 104.7921132 842.23258647 819.23056028 795.7137399 771.63320828 
746.93227309 721.54467874 695.39225501 668.38176885 640.40062159 611.31082675 580.94034537 549.07020501 515.41458376 
479.58850013 441.05213002 399.00701039 352.18080026 298.30622218 232.49808587 78.518322846 700.55445962 680.044123 
659.0690551 637.58204639 615.52770151 592.84040871 569.44161902 545.2361247 520.10684527 493.90731632 466.45050565 
437.49148713 406.69926043 373.60802386 337.52593735 297.34472871 251.0743138 194.3682074 74.347468622 563.51905851 
537.99628369 511.40194931 483.55332248 454.21247464 423.06011731 389.65094235 353.33141885 313.07228995 267.07359878 
211.58925414 48.543921984 7711.9314097 7795.9901169 7879.217772 7961.6411082 8043.2855086 8124.1750996 8204.332836 
8283.7805794 8362.5391691 8440.6284884 8518.067524 8594.8744223 8671.0665399 8746.6604909 8821.672191 8893.8769369 
8965.662591 9036.9434849 9107.7319581 9178.0398848 9247.8786977 9317.2594105 9386.1926392 9442.061119 9497.7211366 
9553.122243 9608.2692734 9663.1669299 9717.8197862 9772.2322926 9826.4087808 9858.1946184 9889.9607197 9921.6904992 
9953.3844996 9985.0432554 10016.667292 10048.257129 10079.813274 10079.812425 8956.4028449 10168.482773 11191.039075 
12004.191522 
