# vtk DataFile Version 5.1
vtk output
ASCII
DATASET UNSTRUCTURED_GRID
POINTS 474 double
0 0 -3 -0.11344901018 0.17758382911 -3.1345113591 -0.25315847539 0.33878440002 -3.2648786912 
-0.38126193464 0.50363826191 -3.4024021726 -0.5126230829 0.66576812132 -3.5400907975 -0.65843420624 0.83063257984 -3.6586607204 
-0.82297351213 0.96639713451 -3.7890248355 -0.97532665543 1.1205572503 -3.9136168835 -1.1248934303 1.2712178784 -4.0456439831 
-1.260480867 1.4416481412 -4.1684021702 -1.3678821889 1.6074581306 -4.3216079256 -1.4660695894 1.784059061 -4.4688198332 
-1.5694943891 1.9404801104 -4.6341551474 -1.6843141616 2.0801145574 -4.8068358964 -1.7920938126 2.214324268 -4.9881403376 
-1.8953148049 2.3800598251 -5.1442721788 -1.9325266326 2.5204028889 -5.3477890193 -1.973129178 2.6634701459 -5.548744719 
-1.9865147688 2.7616205381 -5.7782819197 -2.0072616269 2.8605132642 -6.0069515429 -2.0326142165 2.9638917436 -6.2331597129 
-1.9920842053 3.0592208557 -6.4606892244 -1.9658829099 3.1812169213 -6.6773235986 -1.95489032 3.3115244098 -6.8903942944 
-1.9618163346 3.4463146723 -7.10083102 -1.9595558315 3.5807523934 -7.3115948434 -1.9591600912 3.7034011527 -7.5294414069 
-1.9922335507 3.8261433401 -7.744709848 -2.0235998482 3.9580476516 -7.9547512915 -2.053410198 4.0821397433 -8.16972221 
-2.0922570198 4.2101350542 -8.380928566 -2.0673262565 4.3390293584 -8.5936836256 -2.0611579752 4.4358891617 -8.8240748816 
-2.0457609566 4.5389463916 -9.0513239502 -2.0376118219 4.6474567449 -9.2763997037 -2.0620327306 4.7344755807 -9.5094905474 
-2.0678249667 4.7919692102 -9.7527207523 -2.0538188065 4.7894724803 -10.002315612 -2.061454029 4.7954964511 -10.25212637 
-2.0748719743 4.7792135014 -10.501234428 -2.0879807121 4.7450832286 -10.748546549 -2.1011430636 4.7103243177 -10.995768253 
-2.1002295418 4.7008537725 -11.245587136 -2.1048346881 4.6894878057 -11.495286169 -2.0641472069 4.6880886783 -11.741949039 
-2.0210511199 4.6768675797 -11.987950694 -1.9835084387 4.6483785121 -12.233468351 -1.9506827239 4.6230643942 -12.480007736 
-1.9004712217 4.6381689642 -12.724447211 -1.8375331244 4.6537107888 -12.96589544 -1.7745908329 4.6759472614 -13.206818265 
-1.7324654219 4.637703043 -13.450257845 -1.6671038275 4.5609504363 -13.679030438 -1.598399743 4.4811403079 -13.905768376 
-1.5362405788 4.3949975328 -14.132077148 -1.4802902991 4.3079524624 -14.359657292 -1.4132617365 4.2082396067 -14.578893508 
-1.3346237404 4.1025622853 -14.791374964 -1.2639046148 4.0215870271 -15.017077895 -1.1811068059 3.9440623254 -15.239865784 
-1.0986307142 3.8389919159 -15.45118995 -0.9637992344 3.7108445705 -15.618219079 -0.83607035007 3.5887696699 -15.795089231 
-0.67316557472 3.4694079904 -15.942448736 -0.49469270494 3.3540019539 -16.074087946 -0.32610371771 3.2396122859 -16.218976721 
-0.14820477506 3.1356714575 -16.360568636 0.012364935668 3.0233302117 -16.515800116 0.1549159304 2.9000749565 -16.680078405 
0.27000396814 2.7652117596 -16.856335778 0.3829086188 2.6314831379 -17.034855232 0.49747072388 2.4976228367 -17.212216287 
0.60083379182 2.4004242314 -17.418052405 0.66797056282 2.2936634265 -17.633910656 0.75017747883 2.1834571348 -17.842708636 
0.82913521304 2.0737203209 -18.053002496 0.84139766799 2.0604437881 -18.08156333 -0.5126230829 0.66576812132 -3.5400907975 
-0.52277406038 0.77956108233 -3.7624601292 -0.53449030145 0.89788545023 -3.982373916 -0.53515452505 1.0082199251 -4.2067081811 
-0.53644590475 1.1144897642 -4.4329935178 -0.53696454607 1.2507070137 -4.6426231721 -0.51878168185 1.3625180934 -4.8654856093 
-0.50273855675 1.4613674127 -5.0945520412 -0.49082816941 1.5488159746 -5.328455636 -0.53649707025 1.6336061495 -5.5591610277 
-0.58531137867 1.7180366746 -5.7893536638 -0.67092791921 1.7968155302 -6.0106310912 -0.74962718774 1.8695191762 -6.2365085027 
-0.83361798078 1.9305568324 -6.4639287111 -0.91700232593 1.9931029055 -6.6911621587 -0.9753928223 2.0369035191 -6.930268947 
-1.0475750197 2.0677300162 -7.1676282894 -1.1009443958 2.0963864931 -7.4101783173 -1.0913733021 2.1254249614 -7.6583015962 
-1.0949643175 2.1422303757 -7.9077102622 -1.0664266342 2.165504346 -8.1548653099 -1.1248934303 1.2712178784 -4.0456439831 
-1.3701105494 1.2938911888 -4.0025802454 -1.6157087444 1.3095406912 -3.9585732041 -1.8617989566 1.2971902892 -3.9162993943 
-2.1048102068 1.2871864009 -3.8584594899 -2.3536918581 1.2700404026 -3.8422133105 -2.6027259385 1.2509731012 -3.853097466 
-2.8484396668 1.2518422052 -3.8991844311 -3.0916583036 1.2465957369 -3.9567793032 -3.3338077351 1.2274596438 -4.0159186538 
-3.5641759617 1.2403219499 -4.1121737381 -3.7912733809 1.2235452575 -4.2153498243 -4.0204382622 1.2355273717 -4.3145460244 
-4.2478450942 1.2493184055 -4.4174826076 -4.4834828557 1.2739945955 -4.4972693924 -4.7217834282 1.3027450896 -4.567171082 
-4.9607669071 1.3311838138 -4.6348330046 -5.199558466 1.3700473821 -4.6978267701 -5.4302756926 1.4046385181 -4.7876767264 
-5.6506628044 1.4263130494 -4.9036928272 -5.8669179291 1.4821841882 -5.0156676629 -1.5694943891 1.9404801104 -4.6341551474 
-1.4895185985 2.1771164887 -4.6238063594 -1.381831314 2.3982210442 -4.5789039731 -1.2633369749 2.613011121 -4.5306928281 
-1.1462127147 2.8284302862 -4.4819435621 -1.0110186488 3.0229077887 -4.4019369025 -0.87475765502 3.2163027526 -4.3211202613 
-0.70885179817 3.3900448113 -4.2519180669 -0.54644443097 3.5633239055 -4.1738270778 -0.35505468441 3.7110359584 -4.1101787129 
-0.1483501848 3.8487343787 -4.0816761715 0.067808343634 3.9732436541 -4.0651555501 0.28749992486 4.0913120878 -4.0479667714 
0.50374755256 4.2143802933 -4.0236525716 0.73000447932 4.3146703998 -3.988301509 0.94938943915 4.4138568734 -3.9209792775 
1.1649049221 4.5245782177 -3.8593849555 1.3613181123 4.6701551205 -3.8071429788 1.5518888171 4.8233410947 -3.7550194358 
1.7445140987 4.9527028979 -3.6619548088 1.9520510821 5.0706612644 -3.5883375689 -1.9325266326 2.5204028889 -5.3477890193 
-2.0959306286 2.7087500879 -5.365801979 -2.2633102792 2.8933902522 -5.385602541 -2.4178782198 3.0885612485 -5.4083409222 
-2.5479432722 3.3001525355 -5.43684021 -2.6787178666 3.5102060499 -5.4725547247 -2.8107433098 3.7194501556 -5.5084181681 
-2.9413858908 3.9308341965 -5.5357915725 -3.0679742596 4.1429310387 -5.574396163 -3.2382620752 4.3194711085 -5.6227248669 
-3.4034421657 4.4981947511 -5.679938478 -3.5627383883 4.6713598955 -5.7644283958 -3.7260812147 4.8202216789 -5.8813013633 
-3.8851823596 4.9781299918 -5.9919891692 -4.0318882388 5.1192579924 -6.1371107474 -4.1776034972 5.267674107 -6.2758180666 
-4.3006385034 5.4063912843 -6.4435080543 -4.3993083167 5.5617470301 -6.612708705 -4.4888422999 5.7516090069 -6.7484882896 
-4.5691850661 5.9608949852 -6.8591427934 -4.6250139927 6.1476728782 -7.0152628647 -2.0326142165 2.9638917436 -6.2331597129 
-1.8379661322 2.9856981232 -6.3885193121 -1.6391598511 3.01010672 -6.5381197233 -1.4501474801 3.0433683747 -6.6983320385 
-1.259729815 3.1333976635 -6.8330014113 -1.0836211307 3.1947706356 -6.9994919203 -0.90834424086 3.2595978692 -7.1655504693 
-0.7571583047 3.3005064676 -7.3604075946 -0.60996519126 3.3440873206 -7.5577268704 -0.49002972453 3.3894289805 -7.7723419158 
-0.36913794691 3.4240836293 -7.988407261 -0.25986560906 3.4360709529 -8.212942025 -0.15574965957 3.4430170546 -8.4401239362 
-0.037148734201 3.3980559853 -8.65555913 0.11474077309 3.3523152081 -8.8487879034 0.25761539666 3.307527632 -9.0489900887 
0.37134473956 3.3170620605 -9.2714192487 0.45184428968 3.4066055838 -9.4905123337 0.52755006512 3.4859579188 -9.7151717258 
0.61963079677 3.5558990082 -9.9368232155 0.71155600796 3.6256716727 -10.158220968 -1.9618163346 3.4463146723 -7.10083102 
-2.0309726592 3.3358535308 -7.3141751996 -2.104616748 3.2322445112 -7.5294464686 -2.190188981 3.1546980797 -7.751175907 
-2.2976904794 3.0825969981 -7.9650563921 -2.3991063146 3.0081621014 -8.1810986901 -2.5152911443 2.932724715 -8.3892099249 
-2.6353777226 2.9151416721 -8.607773532 -2.7375207027 2.9036163259 -8.8356638083 -2.8064497636 2.8770738805 -9.0745032588 
-2.8451554793 2.8922226211 -9.3210238122 -2.8645235536 2.9469414014 -9.5641919285 -2.8916055665 2.9711691852 -9.8115369892 
-2.9352780296 2.950425028 -10.056817229 -2.9962578971 2.9862888521 -10.296598883 -3.0614373976 3.0026472426 -10.537397629 
-3.1480640416 3.0173237865 -10.77144981 -3.2331271899 3.0370317538 -11.005705774 -3.288509663 3.025893663 -11.249239601 
-3.320897827 3.0297427036 -11.497102853 -3.3208786737 3.0038642036 -11.745309351 -2.0235998482 3.9580476516 -7.9547512915 
-1.8641792939 4.1284428016 -8.0444763141 -1.703088157 4.2983186837 -8.1321793946 -1.5312487767 4.4435719007 -8.2411414537 
-1.3581433132 4.5892239683 -8.3475368188 -1.1862146091 4.7158958043 -8.4775166889 -1.0186464144 4.8089534404 -8.6380195752 
-0.86800983641 4.8930373924 -8.8189574385 -0.72884017182 4.9763139347 -9.0092120626 -0.59088419752 5.0655988889 -9.1976168027 
-0.45467165021 5.1541236562 -9.3876418208 -0.32760832179 5.2513809607 -9.5797249468 -0.20178605879 5.3528466093 -9.770443274 
-0.086646172337 5.4573309696 -9.9662131005 0.03316044533 5.5673355231 -10.15606929 0.1539268129 5.6761187869 -10.346021089 
0.26904779452 5.7614038547 -10.550895726 0.38126424888 5.8387279751 -10.76048687 0.52095386486 5.9122322598 -10.954352626 
0.65941290954 5.9812120167 -11.150747346 0.83217367741 6.082715558 -11.299200735 -2.0611579752 4.4358891617 -8.8240748816 
-2.2749039929 4.4474172946 -8.9532249573 -2.4981042812 4.4241463158 -9.0634070468 -2.7250734602 4.4038012478 -9.1662227557 
-2.9418091811 4.3703748547 -9.2862573487 -3.1667417949 4.3351481088 -9.3895259095 -3.3871943636 4.2952164277 -9.5004588882 
-3.6033343095 4.2456788972 -9.6159125883 -3.8152564157 4.1965541869 -9.7391026194 -4.0309626123 4.1245192607 -9.8429380958 
-4.2473437712 4.0832631956 -9.9611630135 -4.4655861722 4.0789046166 -10.083028748 -4.6819146229 4.0739012266 -10.208236445 
-4.9124821926 4.0776730423 -10.304799219 -5.1348570088 4.0688567566 -10.418692652 -5.3596202142 4.1049321565 -10.522037062 
[...]
CELL_DATA 451
SCALARS solution%20variable double
LOOKUP_TABLE default
7627.3768454 7385.0929973 7136.015698 6877.9831237 6671.3427985 6457.0513244 6235.459626 6005.7580014 5822.8621715 
5633.1037445 5436.7880049 5233.1753141 5071.8878527 4904.479407 4731.214994 4551.4241413 4409.6500461 4262.4435862 
4110.0345079 3951.8191564 3827.5397659 3698.4598519 3564.7784397 3425.9551614 3317.256507 3204.3307441 3087.3502552 
2965.8335486 2870.9262792 2772.3070491 2670.1252123 2563.9531518 2481.1838196 2395.1609333 2306.013995 2213.3639118 
2141.2183751 2066.2233669 1988.4913126 1907.6861186 1844.7857704 1779.3885067 1711.5920837 1641.0977948 1586.1897962 
1529.0885672 1469.8792563 1408.2948167 1360.2360844 1310.2407535 1258.3830605 1204.4215684 1162.1549605 1118.1611789 
1072.5047473 1024.9629138 987.47939783 948.42555074 907.85366483 865.54702765 831.80819624 796.5765688 759.89092998 
721.52590717 690.67635094 658.33553607 624.52144525 588.97541176 562.87986629 535.51967638 506.90905041 476.81708512 
444.93628719 410.84193084 373.91861763 31.186579023 6746.089654 6611.1605738 6473.4535073 6332.7867731 6188.9580836 
6041.7411174 5890.8813215 5736.090721 5577.0414345 5413.3574746 5244.6042471 5070.2749061 4889.7723292 4702.3848647 
4507.2529967 4303.3223912 4089.2758332 3863.4311491 3623.5817001 669.76597388 5885.7165952 5762.7939025 5637.2270132 
5508.8346278 5377.4138495 5242.7364027 5104.5439534 4962.5422593 4816.393769 4665.7081363 4510.0298834 4348.8220903 
4181.4444243 4007.1229047 3824.9072544 3633.6089739 3431.7082812 3217.2083385 2987.3949071 596.77072847 5124.6898539 
5013.5036673 4899.8327368 4783.4994132 4664.3039468 4542.0204368 4416.3917729 4287.1232442 4153.8743606 4016.2482349 
3873.7775698 3725.9058255 3571.9613673 3411.1211068 3242.3578897 3064.3617594 2875.4172378 2673.2022572 2454.43726 
529.25065058 4454.0313393 4354.1373426 4251.9371568 4147.259749 4039.9119899 3929.6744386 3816.2960353 3699.4873315 
3578.9117349 3454.1740065 3324.8048764 3190.2400457 3049.7908484 2902.6021274 2747.5897715 2583.3444473 2407.9760482 
2218.847006 2012.0786004 467.31172097 3864.9163422 3775.7231151 3684.414224 3590.8277101 3494.7799986 3396.0616329 
3294.4318605 3189.6116694 3081.2746971 2969.0351571 2852.4314939 2730.9037591 2603.7614824 2470.1366472 2328.9123457 
2178.6097081 2017.1987312 1841.759118 1647.813711 410.94139455 3348.8357189 3269.6405516 3188.5253125 3105.3389475 
3019.9096768 2932.0407838 2841.5052355 2748.0387113 2651.3304258 2551.0108256 2446.6347512 2337.6578369 2223.4025001 
2103.0072893 1975.348402 1838.912037 1691.5737092 1530.1851731 1349.7129284 360.01099378 2897.7252156 2827.7534333 
2756.0562127 2682.4945869 2606.9100722 2529.1206034 2448.9153125 2366.0477201 2280.2267054 2191.1043011 2098.2588305 
2001.1710109 1899.1890663 1791.4759562 1676.9260519 1554.0263821 1420.6093635 1273.3708057 1106.8050572 314.2915617 
2504.0541462 2442.4966153 2379.4025521 2314.6456652 2248.0815753 2179.5439701 2108.8396422 2035.7419804 1959.9822872 
1881.2379573 1799.1160122 1713.1295431 1622.6629278 1526.9184986 1424.8309149 1314.9215401 1195.0317214 1061.7830519 
909.31784852 273.47092064 2160.873543 2106.9187606 2051.6072359 1994.825447 1936.4433418 1876.310765 1814.2528258 
1750.0637962 1683.498926 1614.2632346 1541.9957874 1466.2470184 1386.4449186 1301.8425806 1211.4327463 1113.7997723 
1006.841799 887.18915356 748.76670609 237.16542463 1861.8295255 1814.6898126 1766.3620303 1716.7451558 1665.7232476 
1613.1621756 1558.9053664 1502.768178 1444.5303211 1383.925426 1320.6263242 1254.22367 1184.193804 1109.8483937 
1030.251366 944.07268289 849.30387611 742.65169985 617.97781956 204.94263375 1601.1432601 1560.0733197 1517.9720749 
1474.7504979 1430.3062503 1384.520732 1337.2552303 1288.3458118 1237.5964156 1184.7693054 1129.5715327 1071.6351625 
1010.4873405 945.50298991 875.82206834 800.21008965 716.78218057 622.39002555 510.97505582 176.31745298 1373.5665605 
1337.8773926 1301.3021028 1263.7630563 1225.1708787 1185.4218275 1144.394356 1101.9445431 1057.8998953 1012.0507496 
964.13803622 913.83286491 860.70998447 804.20449541 743.53780268 677.58383577 604.60336091 521.64086476 422.84068049 
150.72771786 1174.308879 1143.3778897 1111.6957044 1079.1955228 1045.8003261 1011.4205719 975.95117671 939.26589329 
901.2123002 861.6047259 820.21316141 776.74691126 730.82956471 681.95888713 629.4387717 572.25498943 508.82482116 
436.41645235 349.46937862 127.40704589 998.93091034 972.21368467 944.87054526 916.84316136 888.06415776 858.45505666 
827.92357602 796.36001983 763.63235667 729.5793516 694.00071838 656.64254007 617.1748412 575.15543142 529.96809452 
480.70859386 425.95177649 363.20027473 287.2330373 104.91097181 843.12740985 820.13650703 796.62840187 772.55399096 
747.85638276 722.46910722 696.31376144 669.29685727 641.30551289 612.20142284 581.81218222 549.91838941 516.23370574 
480.37250728 441.79413969 399.69901554 352.81318188 298.86689627 232.97107675 78.651649588 701.55282471 681.06055426 
660.10039066 638.62482403 616.57813606 593.89436537 570.49458142 546.28315546 521.14253624 494.92572375 467.44506304 
438.45488375 407.62326485 374.48321476 338.34126731 298.08676097 251.72574272 194.90458902 74.529889014 564.54673214 
539.01677915 512.4101941 484.54377401 455.17904982 423.99609911 390.54885455 354.18286156 313.86775024 267.80239837 
212.24090825 48.652206415 7712.4558086 7796.517154 7879.7472388 7962.1728009 8043.8192276 8124.7106495 8204.8700257 
8284.3192215 8363.0790803 8441.1694888 8518.6094375 8595.4170762 8671.6097649 8747.2041212 8822.2160637 8894.4209984 
8966.2066756 9037.4874351 9108.2756198 9178.5831066 9248.421331 9317.8013097 9386.7336614 9442.60182 9498.2613543 
9553.6618218 9608.8080603 9663.7047743 9718.3565401 9772.7678105 9826.9429198 9858.7284116 9890.4940022 9922.223109 
9953.9162766 9985.5740409 10017.19693 10048.785463 10080.340152 10080.33931 8956.9403591 10168.981325 11191.503124 
12004.623976 
