# vtk DataFile Version 5.1
vtk output
ASCII
DATASET UNSTRUCTURED_GRID
POINTS 474 double
0 0 -3 -0.11344901018 0.17758382911 -3.1345113591 -0.25315847539 0.33878440002 -3.2648786912 
-0.38126193464 0.50363826191 -3.4024021726 -0.5126230829 0.66576812132 -3.5400907975 -0.65843420624 0.83063257984 -3.6586607204 
-0.82297351213 0.96639713451 -3.7890248355 -0.97532665543 1.1205572503 -3.9136168835 -1.1248934303 1.2712178784 -4.0456439831 
-1.260480867 1.4416481412 -4.1684021702 -1.3678821889 1.6074581306 -4.3216079256 -1.4660695894 1.784059061 -4.4688198332 
-1.5694943891 1.9404801104 -4.6341551474 -1.6843141616 2.0801145574 -4.8068358964 -1.7920938126 2.214324268 -4.9881403376 
-1.8953148049 2.3800598251 -5.1442721788 -1.9325266326 2.5204028889 -5.3477890193 -1.973129178 2.6634701459 -5.548744719 
-1.9865147688 2.7616205381 -5.7782819197 -2.0072616269 2.8605132642 -6.0069515429 -2.0326142165 2.9638917436 -6.2331597129 
-1.9920842053 3.0592208557 -6.4606892244 -1.9658829099 3.1812169213 -6.6773235986 -1.95489032 3.3115244098 -6.8903942944 
-1.9618163346 3.4463146723 -7.10083102 -1.9595558315 3.5807523934 -7.3115948434 -1.9591600912 3.7034011527 -7.5294414069 
-1.9922335507 3.8261433401 -7.744709848 -2.0235998482 3.9580476516 -7.9547512915 -2.053410198 4.0821397433 -8.16972221 
-2.0922570198 4.2101350542 -8.380928566 -2.0673262565 4.3390293584 -8.5936836256 -2.0611579752 4.4358891617 -8.8240748816 
-2.0457609566 4.5389463916 -9.0513239502 -2.0376118219 4.6474567449 -9.2763997037 -2.0620327306 4.7344755807 -9.5094905474 
-2.0678249667 4.7919692102 -9.7527207523 -2.0538188065 4.7894724803 -10.002315612 -2.061454029 4.7954964511 -10.25212637 
-2.0748719743 4.7792135014 -10.501234428 -2.0879807121 4.7450832286 -10.748546549 -2.1011430636 4.7103243177 -10.995768253 
-2.1002295418 4.7008537725 -11.245587136 -2.1048346881 4.6894878057 -11.495286169 -2.0641472069 4.6880886783 -11.741949039 
-2.0210511199 4.6768675797 -11.987950694 -1.9835084387 4.6483785121 -12.233468351 -1.9506827239 4.6230643942 -12.480007736 
-1.9004712217 4.6381689642 -12.724447211 -1.8375331244 4.6537107888 -12.96589544 -1.7745908329 4.6759472614 -13.206818265 
-1.7324654219 4.637703043 -13.450257845 -1.6671038275 4.5609504363 -13.679030438 -1.598399743 4.4811403079 -13.905768376 
-1.5362405788 4.3949975328 -14.132077148 -1.4802902991 4.3079524624 -14.359657292 -1.4132617365 4.2082396067 -14.578893508 
-1.3346237404 4.1025622853 -14.791374964 -1.2639046148 4.0215870271 -15.017077895 -1.1811068059 3.9440623254 -15.239865784 
-1.0986307142 3.8389919159 -15.45118995 -0.9637992344 3.7108445705 -15.618219079 -0.83607035007 3.5887696699 -15.795089231 
-0.67316557472 3.4694079904 -15.942448736 -0.49469270494 3.3540019539 -16.074087946 -0.32610371771 3.2396122859 -16.218976721 
-0.14820477506 3.1356714575 -16.360568636 0.012364935668 3.0233302117 -16.515800116 0.1549159304 2.9000749565 -16.680078405 
0.27000396814 2.7652117596 -16.856335778 0.3829086188 2.6314831379 -17.034855232 0.49747072388 2.4976228367 -17.212216287 
0.60083379182 2.4004242314 -17.418052405 0.66797056282 2.2936634265 -17.633910656 0.75017747883 2.1834571348 -17.842708636 
0.82913521304 2.0737203209 -18.053002496 0.84139766799 2.0604437881 -18.08156333 -0.5126230829 0.66576812132 -3.5400907975 
-0.52277406038 0.77956108233 -3.7624601292 -0.53449030145 0.89788545023 -3.982373916 -0.53515452505 1.0082199251 -4.2067081811 
-0.53644590475 1.1144897642 -4.4329935178 -0.53696454607 1.2507070137 -4.6426231721 -0.51878168185 1.3625180934 -4.8654856093 
-0.50273855675 1.4613674127 -5.0945520412 -0.49082816941 1.5488159746 -5.328455636 -0.53649707025 1.6336061495 -5.5591610277 
-0.58531137867 1.7180366746 -5.7893536638 -0.67092791921 1.7968155302 -6.0106310912 -0.74962718774 1.8695191762 -6.2365085027 
-0.83361798078 1.9305568324 -6.4639287111 -0.91700232593 1.9931029055 -6.6911621587 -0.9753928223 2.0369035191 -6.930268947 
-1.0475750197 2.0677300162 -7.1676282894 -1.1009443958 2.0963864931 -7.4101783173 -1.0913733021 2.1254249614 -7.6583015962 
-1.0949643175 2.1422303757 -7.9077102622 -1.0664266342 2.165504346 -8.1548653099 -1.1248934303 1.2712178784 -4.0456439831 
-1.3701105494 1.2938911888 -4.0025802454 -1.6157087444 1.3095406912 -3.9585732041 -1.8617989566 1.2971902892 -3.9162993943 
-2.1048102068 1.2871864009 -3.8584594899 -2.3536918581 1.2700404026 -3.8422133105 -2.6027259385 1.2509731012 -3.853097466 
-2.8484396668 1.2518422052 -3.8991844311 -3.0916583036 1.2465957369 -3.9567793032 -3.3338077351 1.2274596438 -4.0159186538 
-3.5641759617 1.2403219499 -4.1121737381 -3.7912733809 1.2235452575 -4.2153498243 -4.0204382622 1.2355273717 -4.3145460244 
-4.2478450942 1.2493184055 -4.4174826076 -4.4834828557 1.2739945955 -4.4972693924 -4.7217834282 1.3027450896 -4.567171082 
-4.9607669071 1.3311838138 -4.6348330046 -5.199558466 1.3700473821 -4.6978267701 -5.4302756926 1.4046385181 -4.7876767264 
-5.6506628044 1.4263130494 -4.9036928272 -5.8669179291 1.4821841882 -5.0156676629 -1.5694943891 1.9404801104 -4.6341551474 
-1.4895185985 2.1771164887 -4.6238063594 -1.381831314 2.3982210442 -4.5789039731 -1.2633369749 2.613011121 -4.5306928281 
-1.1462127147 2.8284302862 -4.4819435621 -1.0110186488 3.0229077887 -4.4019369025 -0.87475765502 3.2163027526 -4.3211202613 
-0.70885179817 3.3900448113 -4.2519180669 -0.54644443097 3.5633239055 -4.1738270778 -0.35505468441 3.7110359584 -4.1101787129 
-0.1483501848 3.8487343787 -4.0816761715 0.067808343634 3.9732436541 -4.0651555501 0.28749992486 4.0913120878 -4.0479667714 
0.50374755256 4.2143802933 -4.0236525716 0.73000447932 4.3146703998 -3.988301509 0.94938943915 4.4138568734 -3.9209792775 
1.1649049221 4.5245782177 -3.8593849555 1.3613181123 4.6701551205 -3.8071429788 1.5518888171 4.8233410947 -3.7550194358 
1.7445140987 4.9527028979 -3.6619548088 1.9520510821 5.0706612644 -3.5883375689 -1.9325266326 2.5204028889 -5.3477890193 
-2.0959306286 2.7087500879 -5.365801979 -2.2633102792 2.8933902522 -5.385602541 -2.4178782198 3.0885612485 -5.4083409222 
-2.5479432722 3.3001525355 -5.43684021 -2.6787178666 3.5102060499 -5.4725547247 -2.8107433098 3.7194501556 -5.5084181681 
-2.9413858908 3.9308341965 -5.5357915725 -3.0679742596 4.1429310387 -5.574396163 -3.2382620752 4.3194711085 -5.6227248669 
-3.4034421657 4.4981947511 -5.679938478 -3.5627383883 4.6713598955 -5.7644283958 -3.7260812147 4.8202216789 -5.8813013633 
-3.8851823596 4.9781299918 -5.9919891692 -4.0318882388 5.1192579924 -6.1371107474 -4.1776034972 5.267674107 -6.2758180666 
-4.3006385034 5.4063912843 -6.4435080543 -4.3993083167 5.5617470301 -6.612708705 -4.4888422999 5.7516090069 -6.7484882896 
-4.5691850661 5.9608949852 -6.8591427934 -4.6250139927 6.1476728782 -7.0152628647 -2.0326142165 2.9638917436 -6.2331597129 
-1.8379661322 2.9856981232 -6.3885193121 -1.6391598511 3.01010672 -6.5381197233 -1.4501474801 3.0433683747 -6.6983320385 
-1.259729815 3.1333976635 -6.8330014113 -1.0836211307 3.1947706356 -6.9994919203 -0.90834424086 3.2595978692 -7.1655504693 
-0.7571583047 3.3005064676 -7.3604075946 -0.60996519126 3.3440873206 -7.5577268704 -0.49002972453 3.3894289805 -7.7723419158 
-0.36913794691 3.4240836293 -7.988407261 -0.25986560906 3.4360709529 -8.212942025 -0.15574965957 3.4430170546 -8.4401239362 
-0.037148734201 3.3980559853 -8.65555913 0.11474077309 3.3523152081 -8.8487879034 0.25761539666 3.307527632 -9.0489900887 
0.37134473956 3.3170620605 -9.2714192487 0.45184428968 3.4066055838 -9.4905123337 0.52755006512 3.4859579188 -9.7151717258 
0.61963079677 3.5558990082 -9.9368232155 0.71155600796 3.6256716727 -10.158220968 -1.9618163346 3.4463146723 -7.10083102 
-2.0309726592 3.3358535308 -7.3141751996 -2.104616748 3.2322445112 -7.5294464686 -2.190188981 3.1546980797 -7.751175907 
-2.2976904794 3.0825969981 -7.9650563921 -2.3991063146 3.0081621014 -8.1810986901 -2.5152911443 2.932724715 -8.3892099249 
-2.6353777226 2.9151416721 -8.607773532 -2.7375207027 2.9036163259 -8.8356638083 -2.8064497636 2.8770738805 -9.0745032588 
-2.8451554793 2.8922226211 -9.3210238122 -2.8645235536 2.9469414014 -9.5641919285 -2.8916055665 2.9711691852 -9.8115369892 
-2.9352780296 2.950425028 -10.056817229 -2.9962578971 2.9862888521 -10.296598883 -3.0614373976 3.0026472426 -10.537397629 
-3.1480640416 3.0173237865 -10.77144981 -3.2331271899 3.0370317538 -11.005705774 -3.288509663 3.025893663 -11.249239601 
-3.320897827 3.0297427036 -11.497102853 -3.3208786737 3.0038642036 -11.745309351 -2.0235998482 3.9580476516 -7.9547512915 
-1.8641792939 4.1284428016 -8.0444763141 -1.703088157 4.2983186837 -8.1321793946 -1.5312487767 4.4435719007 -8.2411414537 
-1.3581433132 4.5892239683 -8.3475368188 -1.1862146091 4.7158958043 -8.4775166889 -1.0186464144 4.8089534404 -8.6380195752 
-0.86800983641 4.8930373924 -8.8189574385 -0.72884017182 4.9763139347 -9.0092120626 -0.59088419752 5.0655988889 -9.1976168027 
-0.45467165021 5.1541236562 -9.3876418208 -0.32760832179 5.2513809607 -9.5797249468 -0.20178605879 5.3528466093 -9.770443274 
-0.086646172337 5.4573309696 -9.9662131005 0.03316044533 5.5673355231 -10.15606929 0.1539268129 5.6761187869 -10.346021089 
0.26904779452 5.7614038547 -10.550895726 0.38126424888 5.8387279751 -10.76048687 0.52095386486 5.9122322598 -10.954352626 
0.65941290954 5.9812120167 -11.150747346 0.83217367741 6.082715558 -11.299200735 -2.0611579752 4.4358891617 -8.8240748816 
-2.2749039929 4.4474172946 -8.9532249573 -2.4981042812 4.4241463158 -9.0634070468 -2.7250734602 4.4038012478 -9.1662227557 
-2.9418091811 4.3703748547 -9.2862573487 -3.1667417949 4.3351481088 -9.3895259095 -3.3871943636 4.2952164277 -9.5004588882 
-3.6033343095 4.2456788972 -9.6159125883 -3.8152564157 4.1965541869 -9.7391026194 -4.0309626123 4.1245192607 -9.8429380958 
-4.2473437712 4.0832631956 -9.9611630135 -4.4655861722 4.0789046166 -10.083028748 -4.6819146229 4.0739012266 -10.208236445 
-4.9124821926 4.0776730423 -10.304799219 -5.1348570088 4.0688567566 -10.418692652 -5.3596202142 4.1049321565 -10.522037062 
[...]
CELL_DATA 451
SCALARS solution%20variable double
LOOKUP_TABLE default
7628.8455405 7386.5388015 7137.4380367 6879.3814717 6672.72118 6458.4091901 6236.7964503 6007.0733119 5824.160253 
5634.3841311 5438.0502478 5234.4190321 5073.1175432 4905.6947265 4732.4156086 4552.6098069 4410.8254311 4263.6085152 
4111.188807 3952.9627728 3828.6775103 3699.5917712 3565.904573 3427.075711 3318.3764121 3205.4503376 3088.4698506 
2966.9536786 2872.0520072 2773.4390677 2671.2641796 2565.1000159 2482.3437551 2396.3350729 2307.2034156 2214.5700694 
2142.4464952 2067.4751016 1989.7682267 1908.9902637 1846.1222508 1780.7595533 1712.9997926 1642.5448736 1587.6808226 
1530.6263541 1471.4664111 1409.9346925 1361.931919 1311.9958276 1260.2003446 1206.3049097 1164.1047586 1120.1808508 
1074.5972506 1027.1321842 989.72042412 950.74133008 910.24656645 868.02047103 834.34681889 799.18155058 762.56260461 
724.26558947 693.4571987 661.15490477 627.37558717 591.86125134 565.79491506 538.45671758 509.85914175 479.77111445 
447.88533709 413.77800913 376.8362097 31.321349429 6747.4777666 6612.5379453 6474.8196055 6334.1410607 6190.3000197 
6043.0701592 5892.196927 5737.3923529 5578.3285643 5414.6295901 5245.8608616 5071.5155711 4890.9966537 4703.592542 
4508.4438442 4304.4964106 4090.4333034 3864.5727757 3624.7088655 669.88914162 5887.0211678 5764.0871485 5638.5083167 
5510.103362 5378.6693781 5243.9780803 5105.7711277 4963.754274 4817.5899674 4666.8878671 4511.1925093 4349.9670006 
4182.5710531 4008.2307592 3825.9959579 3634.6783346 3432.7584044 3218.2398176 2988.4091679 596.89299743 5125.9225075 
5014.7245809 4901.0412053 4784.6947146 4665.4853419 4543.1871699 4417.5430719 4288.2583225 4154.9924197 4017.348468 
3874.8591689 3726.9679917 3573.0033272 3412.1421394 3243.3573704 3065.3392329 2876.372546 2674.1357729 2455.3503409 
529.37224489 4455.2057875 4355.2998063 4253.0868352 4148.3958177 4041.0335993 3930.7807137 3817.3860747 3700.5602073 
3579.9664933 3455.2096699 3325.8204465 3191.2345113 3050.763198 2903.5513717 2748.5149837 2584.244836 2408.8510935 
2219.6967288 2012.9041366 467.43321163 3866.0487473 3776.843442 3685.5215664 3591.9211304 3495.8585258 3397.1242608 
3295.4775452 3190.6393276 3082.2832043 2970.0233463 2853.3981559 2731.847645 2604.6813107 2471.0311196 2329.7801791 
2179.4496999 2018.0098935 1842.5409697 1648.5669675 411.06381297 3349.9452038 3270.7379916 3189.6096788 3106.4091719 
3020.9646487 2933.0793466 2842.5261827 2749.0407825 2652.3123024 2551.9711263 2447.5720274 2338.5705697 2224.2891001 
2103.8661022 1976.1777279 1839.7101806 1692.3390983 1530.9166529 1350.4105463 360.13596384 2898.8345601 2828.8508748 
2757.1405725 2683.5646379 2607.9645337 2530.1581369 2449.9345159 2367.047121 2281.2047539 2192.0593612 2099.189171 
2002.0747952 1900.0643426 1792.3206505 1677.7379702 1554.8032353 1421.3488563 1274.0709039 1107.4648266 314.42143035 
2505.1906682 2443.6215029 2380.5144336 2315.7431087 2249.1630828 2180.6079713 2109.8844862 2036.7659273 1960.9834967 
1882.2144759 1800.0657581 1714.0502875 1623.5522744 1527.7738607 1425.6494941 1315.7003181 1195.7674998 1062.4726579 
909.9589633 273.60900197 2162.0700676 2108.1041278 2052.7798152 1995.9835326 1937.5851453 1877.434407 1815.3563257 
1751.1450596 1684.5557305 1615.2932106 1542.9963964 1467.2155246 1387.3783543 1302.7377036 1212.2859894 1114.6071895 
1007.5990356 887.89154456 749.41006489 237.31622434 1863.1252315 1815.975239 1767.6351906 1718.0039671 1666.9655219 
1614.3856085 1560.1075239 1503.9464805 1445.682023 1385.0475914 1321.7157949 1255.2770255 1185.2073092 1110.8179311 
1031.1723463 944.93993085 850.11156699 743.39325204 618.64640171 205.11208354 1602.5840156 1561.505478 1519.393154 
1476.1578895 1431.6972082 1385.8923575 1338.6044553 1289.6693776 1238.890846 1186.0308736 1130.7962181 1072.8185941 
1011.6247222 946.58899911 876.85079644 801.17478792 717.67500306 623.20173439 511.69511602 176.51327731 1375.2038848 
1339.509297 1302.9254145 1265.3744308 1226.7667841 1186.9985262 1145.9478821 1103.470674 1059.3941166 1013.5082096 
965.55348729 915.20068515 862.02399177 805.45780695 744.72263461 678.69120958 605.62266407 522.55921359 423.64234148 
150.95943813 1176.1962982 1145.2657144 1113.579806 1081.0715294 1047.6636016 1013.2661919 977.7738978 941.06023918 
902.97240821 863.32428936 821.88535434 778.36428748 732.38391947 683.44106163 630.83836738 573.55993401 510.02068099 
437.48531362 350.38824463 127.68544629 1001.115596 974.40912753 947.07147233 919.04395809 890.25884256 860.63725013 
830.08646341 798.49630439 765.7342006 731.6383001 696.00759957 658.58733011 619.04647752 576.94154539 531.65461418 
482.27912555 427.38658887 364.4745342 288.3137959 105.24452821 845.63728332 822.67712726 799.19300935 775.13530861 
750.44658038 725.05975949 698.89579724 671.86049752 643.84019261 614.69569139 584.25357244 552.29324142 518.52692265 
482.56720461 443.87112173 401.63595526 354.58326323 300.43644245 234.29560495 79.024527361 704.34898777 683.90595802 
662.98615674 641.54124949 619.51463199 596.83938443 573.43553038 549.20628728 524.03281305 497.76663807 470.21839684 
441.1403721 410.19810673 376.92132634 340.61207215 300.15307389 253.53967191 196.39850276 75.037294949 567.42427991 
541.87374827 515.23243871 487.31584899 457.88401604 426.61526489 393.06142994 356.56550581 316.09405593 269.84277431 
214.06644175 48.954693879 7713.9325314 7798.0013049 7881.2382307 7963.6700597 8045.3221915 8126.2187688 8206.3827619 
8285.8360474 8364.5994793 8442.6929549 8520.1354748 8596.9451985 8673.1394956 8748.734993 8823.7476186 8895.9530853 
8967.7388276 9039.0192094 9109.806582 9180.1128306 9249.9493986 9319.3273107 9388.2571933 9444.1244479 9499.7826219 
9555.1812909 9610.3252999 9665.2193605 9719.8680563 9774.2758471 9828.4470741 9860.2315927 9891.9957454 9923.7229584 
9955.4137809 9987.068754 10018.68841 10050.273275 10081.823864 10081.823043 8958.4540126 10170.385286 11192.809943 
12005.841835 
