# vtk DataFile Version 5.1
vtk output
ASCII
DATASET UNSTRUCTURED_GRID
POINTS 474 double
0 0 -3 -0.11344901018 0.17758382911 -3.1345113591 -0.25315847539 0.33878440002 -3.2648786912 
-0.38126193464 0.50363826191 -3.4024021726 -0.5126230829 0.66576812132 -3.5400907975 -0.65843420624 0.83063257984 -3.6586607204 
-0.82297351213 0.96639713451 -3.7890248355 -0.97532665543 1.1205572503 -3.9136168835 -1.1248934303 1.2712178784 -4.0456439831 
-1.260480867 1.4416481412 -4.1684021702 -1.3678821889 1.6074581306 -4.3216079256 -1.4660695894 1.784059061 -4.4688198332 
-1.5694943891 1.9404801104 -4.6341551474 -1.6843141616 2.0801145574 -4.8068358964 -1.7920938126 2.214324268 -4.9881403376 
-1.8953148049 2.3800598251 -5.1442721788 -1.9325266326 2.5204028889 -5.3477890193 -1.973129178 2.6634701459 -5.548744719 
-1.9865147688 2.7616205381 -5.7782819197 -2.0072616269 2.8605132642 -6.0069515429 -2.0326142165 2.9638917436 -6.2331597129 
-1.9920842053 3.0592208557 -6.4606892244 -1.9658829099 3.1812169213 -6.6773235986 -1.95489032 3.3115244098 -6.8903942944 
-1.9618163346 3.4463146723 -7.10083102 -1.9595558315 3.5807523934 -7.3115948434 -1.9591600912 3.7034011527 -7.5294414069 
-1.9922335507 3.8261433401 -7.744709848 -2.0235998482 3.9580476516 -7.9547512915 -2.053410198 4.0821397433 -8.16972221 
-2.0922570198 4.2101350542 -8.380928566 -2.0673262565 4.3390293584 -8.5936836256 -2.0611579752 4.4358891617 -8.8240748816 
-2.0457609566 4.5389463916 -9.0513239502 -2.0376118219 4.6474567449 -9.2763997037 -2.0620327306 4.7344755807 -9.5094905474 
-2.0678249667 4.7919692102 -9.7527207523 -2.0538188065 4.7894724803 -10.002315612 -2.061454029 4.7954964511 -10.25212637 
-2.0748719743 4.7792135014 -10.501234428 -2.0879807121 4.7450832286 -10.748546549 -2.1011430636 4.7103243177 -10.995768253 
-2.1002295418 4.7008537725 -11.245587136 -2.1048346881 4.6894878057 -11.495286169 -2.0641472069 4.6880886783 -11.741949039 
-2.0210511199 4.6768675797 -11.987950694 -1.9835084387 4.6483785121 -12.233468351 -1.9506827239 4.6230643942 -12.480007736 
-1.9004712217 4.6381689642 -12.724447211 -1.8375331244 4.6537107888 -12.96589544 -1.7745908329 4.6759472614 -13.206818265 
-1.7324654219 4.637703043 -13.450257845 -1.6671038275 4.5609504363 -13.679030438 -1.598399743 4.4811403079 -13.905768376 
-1.5362405788 4.3949975328 -14.132077148 -1.4802902991 4.3079524624 -14.359657292 -1.4132617365 4.2082396067 -14.578893508 
-1.3346237404 4.1025622853 -14.791374964 -1.2639046148 4.0215870271 -15.017077895 -1.1811068059 3.9440623254 -15.239865784 
-1.0986307142 3.8389919159 -15.45118995 -0.9637992344 3.7108445705 -15.618219079 -0.83607035007 3.5887696699 -15.795089231 
-0.67316557472 3.4694079904 -15.942448736 -0.49469270494 3.3540019539 -16.074087946 -0.32610371771 3.2396122859 -16.218976721 
-0.14820477506 3.1356714575 -16.360568636 0.012364935668 3.0233302117 -16.515800116 0.1549159304 2.9000749565 -16.680078405 
0.27000396814 2.7652117596 -16.856335778 0.3829086188 2.6314831379 -17.034855232 0.49747072388 2.4976228367 -17.212216287 
0.60083379182 2.4004242314 -17.418052405 0.66797056282 2.2936634265 -17.633910656 0.75017747883 2.1834571348 -17.842708636 
0.82913521304 2.0737203209 -18.053002496 0.84139766799 2.0604437881 -18.08156333 -0.5126230829 0.66576812132 -3.5400907975 
-0.52277406038 0.77956108233 -3.7624601292 -0.53449030145 0.89788545023 -3.982373916 -0.53515452505 1.0082199251 -4.2067081811 
-0.53644590475 1.1144897642 -4.4329935178 -0.53696454607 1.2507070137 -4.6426231721 -0.51878168185 1.3625180934 -4.8654856093 
-0.50273855675 1.4613674127 -5.0945520412 -0.49082816941 1.5488159746 -5.328455636 -0.53649707025 1.6336061495 -5.5591610277 
-0.58531137867 1.7180366746 -5.7893536638 -0.67092791921 1.7968155302 -6.0106310912 -0.74962718774 1.8695191762 -6.2365085027 
-0.83361798078 1.9305568324 -6.4639287111 -0.91700232593 1.9931029055 -6.6911621587 -0.9753928223 2.0369035191 -6.930268947 
-1.0475750197 2.0677300162 -7.1676282894 -1.1009443958 2.0963864931 -7.4101783173 -1.0913733021 2.1254249614 -7.6583015962 
-1.0949643175 2.1422303757 -7.9077102622 -1.0664266342 2.165504346 -8.1548653099 -1.1248934303 1.2712178784 -4.0456439831 
-1.3701105494 1.2938911888 -4.0025802454 -1.6157087444 1.3095406912 -3.9585732041 -1.8617989566 1.2971902892 -3.9162993943 
-2.1048102068 1.2871864009 -3.8584594899 -2.3536918581 1.2700404026 -3.8422133105 -2.6027259385 1.2509731012 -3.853097466 
-2.8484396668 1.2518422052 -3.8991844311 -3.0916583036 1.2465957369 -3.9567793032 -3.3338077351 1.2274596438 -4.0159186538 
-3.5641759617 1.2403219499 -4.1121737381 -3.7912733809 1.2235452575 -4.2153498243 -4.0204382622 1.2355273717 -4.3145460244 
-4.2478450942 1.2493184055 -4.4174826076 -4.4834828557 1.2739945955 -4.4972693924 -4.7217834282 1.3027450896 -4.567171082 
-4.9607669071 1.3311838138 -4.6348330046 -5.199558466 1.3700473821 -4.6978267701 -5.4302756926 1.4046385181 -4.7876767264 
-5.6506628044 1.4263130494 -4.9036928272 -5.8669179291 1.4821841882 -5.0156676629 -1.5694943891 1.9404801104 -4.6341551474 
-1.4895185985 2.1771164887 -4.6238063594 -1.381831314 2.3982210442 -4.5789039731 -1.2633369749 2.613011121 -4.5306928281 
-1.1462127147 2.8284302862 -4.4819435621 -1.0110186488 3.0229077887 -4.4019369025 -0.87475765502 3.2163027526 -4.3211202613 
-0.70885179817 3.3900448113 -4.2519180669 -0.54644443097 3.5633239055 -4.1738270778 -0.35505468441 3.7110359584 -4.1101787129 
-0.1483501848 3.8487343787 -4.0816761715 0.067808343634 3.9732436541 -4.0651555501 0.28749992486 4.0913120878 -4.0479667714 
0.50374755256 4.2143802933 -4.0236525716 0.73000447932 4.3146703998 -3.988301509 0.94938943915 4.4138568734 -3.9209792775 
1.1649049221 4.5245782177 -3.8593849555 1.3613181123 4.6701551205 -3.8071429788 1.5518888171 4.8233410947 -3.7550194358 
1.7445140987 4.9527028979 -3.6619548088 1.9520510821 5.0706612644 -3.5883375689 -1.9325266326 2.5204028889 -5.3477890193 
-2.0959306286 2.7087500879 -5.365801979 -2.2633102792 2.8933902522 -5.385602541 -2.4178782198 3.0885612485 -5.4083409222 
-2.5479432722 3.3001525355 -5.43684021 -2.6787178666 3.5102060499 -5.4725547247 -2.8107433098 3.7194501556 -5.5084181681 
-2.9413858908 3.9308341965 -5.5357915725 -3.0679742596 4.1429310387 -5.574396163 -3.2382620752 4.3194711085 -5.6227248669 
-3.4034421657 4.4981947511 -5.679938478 -3.5627383883 4.6713598955 -5.7644283958 -3.7260812147 4.8202216789 -5.8813013633 
-3.8851823596 4.9781299918 -5.9919891692 -4.0318882388 5.1192579924 -6.1371107474 -4.1776034972 5.267674107 -6.2758180666 
-4.3006385034 5.4063912843 -6.4435080543 -4.3993083167 5.5617470301 -6.612708705 -4.4888422999 5.7516090069 -6.7484882896 
-4.5691850661 5.9608949852 -6.8591427934 -4.6250139927 6.1476728782 -7.0152628647 -2.0326142165 2.9638917436 -6.2331597129 
-1.8379661322 2.9856981232 -6.3885193121 -1.6391598511 3.01010672 -6.5381197233 -1.4501474801 3.0433683747 -6.6983320385 
-1.259729815 3.1333976635 -6.8330014113 -1.0836211307 3.1947706356 -6.9994919203 -0.90834424086 3.2595978692 -7.1655504693 
-0.7571583047 3.3005064676 -7.3604075946 -0.60996519126 3.3440873206 -7.5577268704 -0.49002972453 3.3894289805 -7.7723419158 
-0.36913794691 3.4240836293 -7.988407261 -0.25986560906 3.4360709529 -8.212942025 -0.15574965957 3.4430170546 -8.4401239362 
-0.037148734201 3.3980559853 -8.65555913 0.11474077309 3.3523152081 -8.8487879034 0.25761539666 3.307527632 -9.0489900887 
0.37134473956 3.3170620605 -9.2714192487 0.45184428968 3.4066055838 -9.4905123337 0.52755006512 3.4859579188 -9.7151717258 
0.61963079677 3.5558990082 -9.9368232155 0.71155600796 3.6256716727 -10.158220968 -1.9618163346 3.4463146723 -7.10083102 
-2.0309726592 3.3358535308 -7.3141751996 -2.104616748 3.2322445112 -7.5294464686 -2.190188981 3.1546980797 -7.751175907 
-2.2976904794 3.0825969981 -7.9650563921 -2.3991063146 3.0081621014 -8.1810986901 -2.5152911443 2.932724715 -8.3892099249 
-2.6353777226 2.9151416721 -8.607773532 -2.7375207027 2.9036163259 -8.8356638083 -2.8064497636 2.8770738805 -9.0745032588 
-2.8451554793 2.8922226211 -9.3210238122 -2.8645235536 2.9469414014 -9.5641919285 -2.8916055665 2.9711691852 -9.8115369892 
-2.9352780296 2.950425028 -10.056817229 -2.9962578971 2.9862888521 -10.296598883 -3.0614373976 3.0026472426 -10.537397629 
-3.1480640416 3.0173237865 -10.77144981 -3.2331271899 3.0370317538 -11.005705774 -3.288509663 3.025893663 -11.249239601 
-3.320897827 3.0297427036 -11.497102853 -3.3208786737 3.0038642036 -11.745309351 -2.0235998482 3.9580476516 -7.9547512915 
-1.8641792939 4.1284428016 -8.0444763141 -1.703088157 4.2983186837 -8.1321793946 -1.5312487767 4.4435719007 -8.2411414537 
-1.3581433132 4.5892239683 -8.3475368188 -1.1862146091 4.7158958043 -8.4775166889 -1.0186464144 4.8089534404 -8.6380195752 
-0.86800983641 4.8930373924 -8.8189574385 -0.72884017182 4.9763139347 -9.0092120626 -0.59088419752 5.0655988889 -9.1976168027 
-0.45467165021 5.1541236562 -9.3876418208 -0.32760832179 5.2513809607 -9.5797249468 -0.20178605879 5.3528466093 -9.770443274 
-0.086646172337 5.4573309696 -9.9662131005 0.03316044533 5.5673355231 -10.15606929 0.1539268129 5.6761187869 -10.346021089 
0.26904779452 5.7614038547 -10.550895726 0.38126424888 5.8387279751 -10.76048687 0.52095386486 5.9122322598 -10.954352626 
0.65941290954 5.9812120167 -11.150747346 0.83217367741 6.082715558 -11.299200735 -2.0611579752 4.4358891617 -8.8240748816 
-2.2749039929 4.4474172946 -8.9532249573 -2.4981042812 4.4241463158 -9.0634070468 -2.7250734602 4.4038012478 -9.1662227557 
-2.9418091811 4.3703748547 -9.2862573487 -3.1667417949 4.3351481088 -9.3895259095 -3.3871943636 4.2952164277 -9.5004588882 
-3.6033343095 4.2456788972 -9.6159125883 -3.8152564157 4.1965541869 -9.7391026194 -4.0309626123 4.1245192607 -9.8429380958 
-4.2473437712 4.0832631956 -9.9611630135 -4.4655861722 4.0789046166 -10.083028748 -4.6819146229 4.0739012266 -10.208236445 
-4.9124821926 4.0776730423 -10.304799219 -5.1348570088 4.0688567566 -10.418692652 -5.3596202142 4.1049321565 -10.522037062 
[...]
CELL_DATA 451
SCALARS solution%20variable double
LOOKUP_TABLE default
7629.9530684 7387.629071 7138.5106146 6880.4359621 6673.7606173 6459.4331604 6237.8045575 6008.0652001 5825.1391528 
5635.3496917 5439.002131 5235.3569508 5074.0448882 4906.6112391 4733.3210372 4553.5039676 4411.7118436 4264.4870474 
4112.0593279 3953.8252424 3829.5355549 3700.4454261 3566.7538672 3427.9207966 3319.2210109 3206.2946997 3089.3142114 
2967.7984381 2872.9009787 2774.292771 2672.1231081 2565.9648814 2483.2184502 2397.2204466 2308.1002745 2215.4795046 
2143.3724309 2068.4187737 1990.7308048 1909.973282 1847.1295319 1781.7927615 1714.0604901 1643.6350792 1588.8039482 
1531.7844906 1472.6614932 1411.1692105 1363.2082609 1313.316419 1261.5673757 1207.721221 1165.5705973 1121.6987216 
1076.1693116 1028.7613151 991.40281404 952.47914299 912.04149463 869.8749781 836.24950479 801.13321205 764.56340738 
726.31641706 695.5384627 663.26459483 629.51087613 594.01980717 567.9751065 540.65317371 512.06522347 481.98006622 
450.09055879 415.97359857 379.0181112 31.422110272 6748.5245398 6613.5766198 6475.8497802 6335.1623306 6191.311977 
6044.0723947 5893.1890323 5738.3739227 5579.2992005 5415.5889065 5246.8084913 5072.4511762 4891.9199396 4704.5032775 
4509.3418919 4305.3817719 4091.3061887 3865.4337173 3625.5589056 669.98201437 5888.0049598 5765.0624004 5639.4745643 
5511.0601329 5379.6161923 5244.9144514 5106.6965641 4964.6682807 4818.4920493 4667.7775335 4512.0692798 4350.8304148 
4183.4206845 4009.0662364 3826.8169972 3635.4847916 3433.5503587 3219.0177169 2989.1740871 596.98519435 5126.8520839 
5015.6453057 4901.9525471 4785.5961288 4666.3762714 4544.0670447 4418.4113101 4289.1143311 4155.8355966 4018.1782051 
3875.674857 3727.7690285 3573.7891299 3412.9121646 3244.1111472 3066.0764184 2877.0930215 2674.8398196 2456.0389827 
529.46393567 4456.0914913 4356.1764745 4253.9538642 4149.2525857 4041.8794659 3931.615019 3818.2081391 3701.3693311 
3580.7619576 3455.9907374 3326.5863648 3191.9845179 3051.4965303 2904.267284 2749.2127775 2584.9239149 2409.5110658 
2220.3376108 2013.5267852 467.52482763 3866.9027654 3777.6883549 3686.3566907 3592.7457589 3496.6719265 3397.9256747 
3296.2661852 3191.4143769 3083.0438148 2970.7686382 2854.1272174 2732.5595344 2605.3750619 2471.7057537 2330.4347289 
2180.0832589 2018.6217172 1843.1306957 1649.135136 411.15613279 3350.7819503 3271.5656597 3190.4274926 3107.2163259 
3021.7603051 2933.8626331 2843.2961893 2749.7965589 2653.0528541 2552.6954114 2448.2789536 2339.2589916 2224.9578192 
2104.5138711 1976.8032652 1840.3122078 1692.9164305 1531.4684199 1350.9367848 360.23021257 2899.6711943 2829.6785408 
2757.9583814 2684.3716636 2608.7598105 2530.940655 2450.7032176 2367.8008958 2281.9424327 2192.7797102 2099.8908844 
2002.7564878 1900.7245423 1792.9577935 1678.3504019 1555.3892297 1421.906683 1274.5990296 1107.962548 314.51937745 
2506.0477482 2444.4698224 2381.3529579 2316.5707574 2249.9787258 2181.4104238 2110.6725031 2037.5381959 1961.7386286 
1882.9509977 1800.7820992 1714.7447669 1624.2230846 1528.4190509 1426.2669538 1316.2877712 1196.3225349 1062.9928833 
910.44263199 273.71314388 2162.9722601 2108.9979277 2053.6639922 1996.8567997 1938.4461533 1878.2817381 1816.1884854 
1751.9604682 1685.352711 1616.0699757 1543.751031 1467.9459652 1388.0823624 1303.4128338 1212.9295513 1115.2162077 
1008.1702268 888.42139214 749.89541462 237.42995066 1864.1019181 1816.9442059 1768.594939 1718.952926 1667.9020406 
1615.3079486 1561.0138495 1504.8348456 1446.5503568 1385.8936792 1322.5372547 1256.0712774 1185.9715366 1111.5490288 
1031.8668538 945.59394635 850.72069965 743.95254174 619.15070264 205.23984767 1603.6694959 1562.5845184 1520.4638833 
1477.2183408 1432.7453107 1386.9259257 1339.6211759 1290.6667935 1239.8663364 1186.9816287 1131.7192066 1073.7105211 
1012.4819725 947.40756065 877.62621611 801.90198006 718.34805625 623.81369046 512.238044 176.66086068 1376.4365224 
1340.7378932 1304.1475792 1266.5876442 1227.9683856 1188.1857003 1147.1176412 1104.6198376 1060.5192843 1014.6057273 
966.61940259 916.23076425 863.01357916 806.40171988 745.61501253 679.52529343 606.39046628 523.25104021 424.24636121 
151.13392887 1177.6156914 1146.6854259 1114.9967295 1082.4823759 1049.0648842 1014.6542068 979.14470174 942.40971399 
904.29614552 864.61754741 823.14300133 779.5807259 733.55298212 684.55586487 631.89109671 574.54151838 510.92027719 
438.28946835 351.07969857 127.89478888 1002.7562637 976.05778009 948.72414727 920.69643812 891.9066365 862.27556995 
831.71019612 800.09997713 767.3119365 733.1837613 697.5139123 660.04698373 620.45118455 578.28204139 532.92036036 
483.45784611 428.46351145 365.43107225 289.12530769 105.49473329 847.51866087 824.5811005 801.11450772 777.06887874 
752.38635999 726.99944639 700.82861189 673.77913705 645.73677303 616.56167349 586.07966456 554.0692684 520.24164403 
484.2080537 445.4238161 403.08388685 355.90649004 301.60993105 235.28632704 79.30297143 706.44081059 686.03331105 
665.14237996 643.71908191 621.7061675 599.03601945 575.62790051 551.38418858 526.18510187 499.88109978 472.28156851 
443.13729436 412.11196256 378.73288929 342.29881234 301.68759523 254.88669001 197.50820349 75.413571686 569.5761159 
544.0097086 517.34200354 489.38754329 459.90526619 428.57220847 394.93866179 358.34574727 317.757783 271.3681579 
215.43228992 49.180190845 7715.0461119 7799.1204858 7882.3625696 7964.7991237 8046.4555571 8127.3560214 8207.5234957 
8286.9798649 8365.7459912 8443.8417796 8521.2862384 8598.0975345 8674.2930448 8749.8894031 8824.902544 8897.1084124 
8968.8942042 9040.1743018 9110.9610627 9181.2663781 9251.1016979 9320.4780524 9389.406074 9445.2726474 9500.9297962 
9556.3271096 9611.469438 9666.3614985 9721.0078801 9775.4130479 9829.5813482 9861.3651331 9893.1282021 9924.8539874 
9956.5430421 9988.1959109 10019.81313 10051.395229 10082.942728 10082.941922 8959.5954433 10171.444024 11193.795445 
12006.760268 
