# vtk DataFile Version 5.1
vtk output
ASCII
DATASET UNSTRUCTURED_GRID
POINTS 474 double
0 0 -3 -0.11344901018 0.17758382911 -3.1345113591 -0.25315847539 0.33878440002 -3.2648786912 
-0.38126193464 0.50363826191 -3.4024021726 -0.5126230829 0.66576812132 -3.5400907975 -0.65843420624 0.83063257984 -3.6586607204 
-0.82297351213 0.96639713451 -3.7890248355 -0.97532665543 1.1205572503 -3.9136168835 -1.1248934303 1.2712178784 -4.0456439831 
-1.260480867 1.4416481412 -4.1684021702 -1.3678821889 1.6074581306 -4.3216079256 -1.4660695894 1.784059061 -4.4688198332 
-1.5694943891 1.9404801104 -4.6341551474 -1.6843141616 2.0801145574 -4.8068358964 -1.7920938126 2.214324268 -4.9881403376 
-1.8953148049 2.3800598251 -5.1442721788 -1.9325266326 2.5204028889 -5.3477890193 -1.973129178 2.6634701459 -5.548744719 
-1.9865147688 2.7616205381 -5.7782819197 -2.0072616269 2.8605132642 -6.0069515429 -2.0326142165 2.9638917436 -6.2331597129 
-1.9920842053 3.0592208557 -6.4606892244 -1.9658829099 3.1812169213 -6.6773235986 -1.95489032 3.3115244098 -6.8903942944 
-1.9618163346 3.4463146723 -7.10083102 -1.9595558315 3.5807523934 -7.3115948434 -1.9591600912 3.7034011527 -7.5294414069 
-1.9922335507 3.8261433401 -7.744709848 -2.0235998482 3.9580476516 -7.9547512915 -2.053410198 4.0821397433 -8.16972221 
-2.0922570198 4.2101350542 -8.380928566 -2.0673262565 4.3390293584 -8.5936836256 -2.0611579752 4.4358891617 -8.8240748816 
-2.0457609566 4.5389463916 -9.0513239502 -2.0376118219 4.6474567449 -9.2763997037 -2.0620327306 4.7344755807 -9.5094905474 
-2.0678249667 4.7919692102 -9.7527207523 -2.0538188065 4.7894724803 -10.002315612 -2.061454029 4.7954964511 -10.25212637 
-2.0748719743 4.7792135014 -10.501234428 -2.0879807121 4.7450832286 -10.748546549 -2.1011430636 4.7103243177 -10.995768253 
-2.1002295418 4.7008537725 -11.245587136 -2.1048346881 4.6894878057 -11.495286169 -2.0641472069 4.6880886783 -11.741949039 
-2.0210511199 4.6768675797 -11.987950694 -1.9835084387 4.6483785121 -12.233468351 -1.9506827239 4.6230643942 -12.480007736 
-1.9004712217 4.6381689642 -12.724447211 -1.8375331244 4.6537107888 -12.96589544 -1.7745908329 4.6759472614 -13.206818265 
-1.7324654219 4.637703043 -13.450257845 -1.6671038275 4.5609504363 -13.679030438 -1.598399743 4.4811403079 -13.905768376 
-1.5362405788 4.3949975328 -14.132077148 -1.4802902991 4.3079524624 -14.359657292 -1.4132617365 4.2082396067 -14.578893508 
-1.3346237404 4.1025622853 -14.791374964 -1.2639046148 4.0215870271 -15.017077895 -1.1811068059 3.9440623254 -15.239865784 
-1.0986307142 3.8389919159 -15.45118995 -0.9637992344 3.7108445705 -15.618219079 -0.83607035007 3.5887696699 -15.795089231 
-0.67316557472 3.4694079904 -15.942448736 -0.49469270494 3.3540019539 -16.074087946 -0.32610371771 3.2396122859 -16.218976721 
-0.14820477506 3.1356714575 -16.360568636 0.012364935668 3.0233302117 -16.515800116 0.1549159304 2.9000749565 -16.680078405 
0.27000396814 2.7652117596 -16.856335778 0.3829086188 2.6314831379 -17.034855232 0.49747072388 2.4976228367 -17.212216287 
0.60083379182 2.4004242314 -17.418052405 0.66797056282 2.2936634265 -17.633910656 0.75017747883 2.1834571348 -17.842708636 
0.82913521304 2.0737203209 -18.053002496 0.84139766799 2.0604437881 -18.08156333 -0.5126230829 0.66576812132 -3.5400907975 
-0.52277406038 0.77956108233 -3.7624601292 -0.53449030145 0.89788545023 -3.982373916 -0.53515452505 1.0082199251 -4.2067081811 
-0.53644590475 1.1144897642 -4.4329935178 -0.53696454607 1.2507070137 -4.6426231721 -0.51878168185 1.3625180934 -4.8654856093 
-0.50273855675 1.4613674127 -5.0945520412 -0.49082816941 1.5488159746 -5.328455636 -0.53649707025 1.6336061495 -5.5591610277 
-0.58531137867 1.7180366746 -5.7893536638 -0.67092791921 1.7968155302 -6.0106310912 -0.74962718774 1.8695191762 -6.2365085027 
-0.83361798078 1.9305568324 -6.4639287111 -0.91700232593 1.9931029055 -6.6911621587 -0.9753928223 2.0369035191 -6.930268947 
-1.0475750197 2.0677300162 -7.1676282894 -1.1009443958 2.0963864931 -7.4101783173 -1.0913733021 2.1254249614 -7.6583015962 
-1.0949643175 2.1422303757 -7.9077102622 -1.0664266342 2.165504346 -8.1548653099 -1.1248934303 1.2712178784 -4.0456439831 
-1.3701105494 1.2938911888 -4.0025802454 -1.6157087444 1.3095406912 -3.9585732041 -1.8617989566 1.2971902892 -3.9162993943 
-2.1048102068 1.2871864009 -3.8584594899 -2.3536918581 1.2700404026 -3.8422133105 -2.6027259385 1.2509731012 -3.853097466 
-2.8484396668 1.2518422052 -3.8991844311 -3.0916583036 1.2465957369 -3.9567793032 -3.3338077351 1.2274596438 -4.0159186538 
-3.5641759617 1.2403219499 -4.1121737381 -3.7912733809 1.2235452575 -4.2153498243 -4.0204382622 1.2355273717 -4.3145460244 
-4.2478450942 1.2493184055 -4.4174826076 -4.4834828557 1.2739945955 -4.4972693924 -4.7217834282 1.3027450896 -4.567171082 
-4.9607669071 1.3311838138 -4.6348330046 -5.199558466 1.3700473821 -4.6978267701 -5.4302756926 1.4046385181 -4.7876767264 
-5.6506628044 1.4263130494 -4.9036928272 -5.8669179291 1.4821841882 -5.0156676629 -1.5694943891 1.9404801104 -4.6341551474 
-1.4895185985 2.1771164887 -4.6238063594 -1.381831314 2.3982210442 -4.5789039731 -1.2633369749 2.613011121 -4.5306928281 
-1.1462127147 2.8284302862 -4.4819435621 -1.0110186488 3.0229077887 -4.4019369025 -0.87475765502 3.2163027526 -4.3211202613 
-0.70885179817 3.3900448113 -4.2519180669 -0.54644443097 3.5633239055 -4.1738270778 -0.35505468441 3.7110359584 -4.1101787129 
-0.1483501848 3.8487343787 -4.0816761715 0.067808343634 3.9732436541 -4.0651555501 0.28749992486 4.0913120878 -4.0479667714 
0.50374755256 4.2143802933 -4.0236525716 0.73000447932 4.3146703998 -3.988301509 0.94938943915 4.4138568734 -3.9209792775 
1.1649049221 4.5245782177 -3.8593849555 1.3613181123 4.6701551205 -3.8071429788 1.5518888171 4.8233410947 -3.7550194358 
1.7445140987 4.9527028979 -3.6619548088 1.9520510821 5.0706612644 -3.5883375689 -1.9325266326 2.5204028889 -5.3477890193 
-2.0959306286 2.7087500879 -5.365801979 -2.2633102792 2.8933902522 -5.385602541 -2.4178782198 3.0885612485 -5.4083409222 
-2.5479432722 3.3001525355 -5.43684021 -2.6787178666 3.5102060499 -5.4725547247 -2.8107433098 3.7194501556 -5.5084181681 
-2.9413858908 3.9308341965 -5.5357915725 -3.0679742596 4.1429310387 -5.574396163 -3.2382620752 4.3194711085 -5.6227248669 
-3.4034421657 4.4981947511 -5.679938478 -3.5627383883 4.6713598955 -5.7644283958 -3.7260812147 4.8202216789 -5.8813013633 
-3.8851823596 4.9781299918 -5.9919891692 -4.0318882388 5.1192579924 -6.1371107474 -4.1776034972 5.267674107 -6.2758180666 
-4.3006385034 5.4063912843 -6.4435080543 -4.3993083167 5.5617470301 -6.612708705 -4.4888422999 5.7516090069 -6.7484882896 
-4.5691850661 5.9608949852 -6.8591427934 -4.6250139927 6.1476728782 -7.0152628647 -2.0326142165 2.9638917436 -6.2331597129 
-1.8379661322 2.9856981232 -6.3885193121 -1.6391598511 3.01010672 -6.5381197233 -1.4501474801 3.0433683747 -6.6983320385 
-1.259729815 3.1333976635 -6.8330014113 -1.0836211307 3.1947706356 -6.9994919203 -0.90834424086 3.2595978692 -7.1655504693 
-0.7571583047 3.3005064676 -7.3604075946 -0.60996519126 3.3440873206 -7.5577268704 -0.49002972453 3.3894289805 -7.7723419158 
-0.36913794691 3.4240836293 -7.988407261 -0.25986560906 3.4360709529 -8.212942025 -0.15574965957 3.4430170546 -8.4401239362 
-0.037148734201 3.3980559853 -8.65555913 0.11474077309 3.3523152081 -8.8487879034 0.25761539666 3.307527632 -9.0489900887 
0.37134473956 3.3170620605 -9.2714192487 0.45184428968 3.4066055838 -9.4905123337 0.52755006512 3.4859579188 -9.7151717258 
0.61963079677 3.5558990082 -9.9368232155 0.71155600796 3.6256716727 -10.158220968 -1.9618163346 3.4463146723 -7.10083102 
-2.0309726592 3.3358535308 -7.3141751996 -2.104616748 3.2322445112 -7.5294464686 -2.190188981 3.1546980797 -7.751175907 
-2.2976904794 3.0825969981 -7.9650563921 -2.3991063146 3.0081621014 -8.1810986901 -2.5152911443 2.932724715 -8.3892099249 
-2.6353777226 2.9151416721 -8.607773532 -2.7375207027 2.9036163259 -8.8356638083 -2.8064497636 2.8770738805 -9.0745032588 
-2.8451554793 2.8922226211 -9.3210238122 -2.8645235536 2.9469414014 -9.5641919285 -2.8916055665 2.9711691852 -9.8115369892 
-2.9352780296 2.950425028 -10.056817229 -2.9962578971 2.9862888521 -10.296598883 -3.0614373976 3.0026472426 -10.537397629 
-3.1480640416 3.0173237865 -10.77144981 -3.2331271899 3.0370317538 -11.005705774 -3.288509663 3.025893663 -11.249239601 
-3.320897827 3.0297427036 -11.497102853 -3.3208786737 3.0038642036 -11.745309351 -2.0235998482 3.9580476516 -7.9547512915 
-1.8641792939 4.1284428016 -8.0444763141 -1.703088157 4.2983186837 -8.1321793946 -1.5312487767 4.4435719007 -8.2411414537 
-1.3581433132 4.5892239683 -8.3475368188 -1.1862146091 4.7158958043 -8.4775166889 -1.0186464144 4.8089534404 -8.6380195752 
-0.86800983641 4.8930373924 -8.8189574385 -0.72884017182 4.9763139347 -9.0092120626 -0.59088419752 5.0655988889 -9.1976168027 
-0.45467165021 5.1541236562 -9.3876418208 -0.32760832179 5.2513809607 -9.5797249468 -0.20178605879 5.3528466093 -9.770443274 
-0.086646172337 5.4573309696 -9.9662131005 0.03316044533 5.5673355231 -10.15606929 0.1539268129 5.6761187869 -10.346021089 
0.26904779452 5.7614038547 -10.550895726 0.38126424888 5.8387279751 -10.76048687 0.52095386486 5.9122322598 -10.954352626 
0.65941290954 5.9812120167 -11.150747346 0.83217367741 6.082715558 -11.299200735 -2.0611579752 4.4358891617 -8.8240748816 
-2.2749039929 4.4474172946 -8.9532249573 -2.4981042812 4.4241463158 -9.0634070468 -2.7250734602 4.4038012478 -9.1662227557 
-2.9418091811 4.3703748547 -9.2862573487 -3.1667417949 4.3351481088 -9.3895259095 -3.3871943636 4.2952164277 -9.5004588882 
-3.6033343095 4.2456788972 -9.6159125883 -3.8152564157 4.1965541869 -9.7391026194 -4.0309626123 4.1245192607 -9.8429380958 
-4.2473437712 4.0832631956 -9.9611630135 -4.4655861722 4.0789046166 -10.083028748 -4.6819146229 4.0739012266 -10.208236445 
-4.9124821926 4.0776730423 -10.304799219 -5.1348570088 4.0688567566 -10.418692652 -5.3596202142 4.1049321565 -10.522037062 
[...]
CELL_DATA 451
SCALARS solution%20variable double
LOOKUP_TABLE default
7630.5258354 7388.1929133 7139.0653082 6880.9813024 6674.2981734 6459.9627183 6238.3259122 6008.5781677 5825.645404 
5635.849045 5439.4944114 5235.8420099 5074.5244793 4907.0852285 4733.7892947 4553.966398 4412.1702667 4264.9413948 
4112.5095316 3954.2712817 3829.9793044 3700.8869037 3567.1930875 3428.357838 3319.6577967 3206.7313588 3089.7508646 
2968.2352915 2873.3400021 2774.7342319 2672.5672604 2566.4120914 2483.6707273 2397.6782274 2308.5639735 2215.9496833 
2143.8511121 2068.9065925 1991.2283616 1910.4813649 1847.6501075 1782.3266837 1714.6085592 1644.1983301 1589.3841308 
1532.3826744 1473.2786667 1411.8066469 1363.8671761 1313.9980492 1262.2728352 1208.4519563 1166.3267172 1122.4814954 
1076.9798292 1029.6010341 992.26976125 953.37440405 912.96591213 870.82978634 837.22887499 802.13752455 765.59271899 
727.3711483 696.60870762 664.34930902 630.60859839 595.12932847 569.0956704 541.7820298 513.19897745 483.11526799 
451.22384204 417.10195863 380.13949168 31.473685006 6749.0658894 6614.1137817 6476.3825468 6335.6904925 6191.8353234 
6044.5907141 5893.7021134 5738.881556 5579.8011802 5416.0850329 5247.2985747 5072.935042 4892.3974354 4704.9742838 
4509.8063378 4305.8396581 4091.7576242 3865.8789772 3625.9985289 670.0300419 5888.5137409 5765.5667656 5639.9742733 
5511.5549416 5380.1058525 5245.3987115 5107.1751698 4965.1409763 4818.9585789 4668.2376431 4512.5227212 4351.2769499 
4183.8600929 4009.498326 3827.2416214 3635.9018759 3433.9599442 3219.4200352 2989.5696942 597.03287278 5127.3328293 
5016.1214741 4902.4238636 4786.062312 4666.8370331 4544.5220901 4418.8603384 4289.5570356 4156.271666 4018.607325 
3876.0967125 3728.1833081 3574.1955322 3413.3104088 3244.5009899 3066.4576823 2877.4656452 2675.2039488 2456.3951469 
529.51135286 4456.5495489 4356.6298602 4254.4022658 4149.6956817 4042.316925 3932.0465001 3818.6332906 3701.7877914 
3581.1733548 3456.3946903 3326.9824843 3192.3724099 3051.8758005 2904.6375468 2749.5736718 2585.2751323 2409.8524039 
2220.6690782 2013.8488251 467.57220674 3867.3444352 3778.1253171 3686.7885919 3593.1722335 3497.0925958 3398.3401462 
3296.6740519 3191.8152164 3083.4371886 2971.1540912 2854.5042782 2732.9277161 2605.7338648 2472.0546718 2330.773262 
2180.4109383 2018.9381581 1843.4357111 1649.4290052 411.20387644 3351.2146811 3271.9936975 3190.8504362 3107.6337586 
3022.1717937 2934.2677264 2843.6944168 2750.187429 2653.4358525 2553.0699994 2448.6445662 2339.6150366 2225.3036767 
2104.8488961 1977.1267951 1840.6235817 1693.2150358 1531.7538066 1351.2089724 360.27895408 2900.103849 2830.1065608 
2758.3813068 2684.7890156 2609.1710894 2531.3453387 2451.1007591 2368.1907207 2282.3239364 2193.1522545 2100.253794 
2003.1090463 1901.0659885 1793.2873186 1678.6671504 1555.6923092 1422.1951987 1274.8721889 1108.2199877 314.57003112 
2506.4909372 2444.9084861 2381.786561 2316.9987412 2250.4005057 2181.8253872 2111.0800057 2037.9375589 1962.129134 
1883.3318833 1801.1525528 1715.103919 1624.5700007 1528.7527219 1426.5862885 1316.5915927 1196.6095963 1063.2619481 
910.69279762 273.76699887 2163.4387013 2109.4600367 2054.1211328 1997.3083062 1938.8913279 1878.7198473 1816.6187565 
1752.382084 1685.7648043 1616.4716221 1544.1412402 1468.3236697 1388.4464048 1303.7619497 1213.2623494 1115.5311497 
1008.465615 888.69540896 750.14643001 237.4887557 1864.6067384 1817.4450458 1769.0910236 1719.4434427 1668.3861359 
1615.7847236 1561.4823547 1505.2940747 1446.999239 1386.3310693 1322.9619211 1256.4818861 1186.3666312 1111.927004 
1032.2259205 945.93208756 851.03564581 744.24172942 619.41147332 205.30589709 1604.2303184 1563.1420263 1521.0171091 
1477.766268 1433.2868687 1387.4599848 1340.1465402 1291.1821929 1240.3704163 1187.4729367 1132.1961759 1074.1714487 
1012.92499 947.83059459 878.02696526 802.2778165 718.69592577 624.12999867 512.51869539 176.73712656 1377.0730013 
1341.3722981 1304.7786752 1267.2141298 1228.5888864 1188.7987618 1147.7217202 1105.2132912 1061.1003561 1015.17253 
967.16989495 916.76275956 863.5246731 806.88923601 746.07592462 679.95611157 606.78706679 523.60841947 424.55841476 
151.22404161 1178.3480212 1147.4179235 1115.727792 1083.2103059 1049.7878823 1015.3703619 979.85197927 943.10598931 
904.97914435 865.28482363 823.79190783 780.20837547 734.15619396 685.13108889 632.43430307 575.0480297 511.38450303 
438.70447399 351.43659121 128.00278831 1003.6018984 976.9074985 949.57590681 921.54806522 892.75581688 863.11983683 
832.54691579 800.92633101 768.12489846 733.98006836 698.29002614 660.79903868 621.17491567 578.97268151 533.57248713 
484.06514414 429.01838191 365.92395634 289.54353858 105.62359744 848.48715197 825.56106919 802.10334276 778.06377358 
753.38429948 727.99719098 701.82267863 674.76577603 646.71193788 617.52098347 587.01835476 554.98212264 521.12290169 
485.05127606 446.22168675 403.82789942 356.58643222 302.21298668 235.79559935 79.445950009 707.5161973 687.12652859 
666.24999956 644.83737109 622.83106794 600.16312073 576.75240813 552.50088417 527.28829239 500.96455084 473.33841409 
444.15991042 413.0917828 379.66012375 343.16199136 302.47277273 255.575904 198.07609985 75.605926172 570.68200013 
545.10726186 518.42583982 490.45179122 460.94349609 429.57733561 395.9028174 359.2601111 318.61239683 272.15190395 
216.13442052 49.295838715 7715.6220088 7799.6992788 7882.94403 7965.3830275 8047.0416855 8127.94416 8208.1134346 
8287.5713986 8366.3389183 8444.4359029 8521.8813645 8598.693474 8674.8896118 8750.4864155 8825.4998232 8897.7058995 
8969.4917171 9040.771668 9111.5581127 9181.8629459 9251.6976204 9321.0731697 9390.0002292 9445.8664506 9501.5230694 
9556.919682 9612.0611415 9666.952168 9721.5973531 9776.0011646 9830.1679518 9861.9513574 9893.713866 9925.4389132 
9957.1270539 9988.7788347 10020.394794 10051.975462 10083.521363 10083.520565 8960.1857449 10171.991569 11194.305123 
12007.235265 
