# vtk DataFile Version 5.1
vtk output
ASCII
DATASET UNSTRUCTURED_GRID
POINTS 474 double
0 0 -3 -0.11344901018 0.17758382911 -3.1345113591 -0.25315847539 0.33878440002 -3.2648786912 
-0.38126193464 0.50363826191 -3.4024021726 -0.5126230829 0.66576812132 -3.5400907975 -0.65843420624 0.83063257984 -3.6586607204 
-0.82297351213 0.96639713451 -3.7890248355 -0.97532665543 1.1205572503 -3.9136168835 -1.1248934303 1.2712178784 -4.0456439831 
-1.260480867 1.4416481412 -4.1684021702 -1.3678821889 1.6074581306 -4.3216079256 -1.4660695894 1.784059061 -4.4688198332 
-1.5694943891 1.9404801104 -4.6341551474 -1.6843141616 2.0801145574 -4.8068358964 -1.7920938126 2.214324268 -4.9881403376 
-1.8953148049 2.3800598251 -5.1442721788 -1.9325266326 2.5204028889 -5.3477890193 -1.973129178 2.6634701459 -5.548744719 
-1.9865147688 2.7616205381 -5.7782819197 -2.0072616269 2.8605132642 -6.0069515429 -2.0326142165 2.9638917436 -6.2331597129 
-1.9920842053 3.0592208557 -6.4606892244 -1.9658829099 3.1812169213 -6.6773235986 -1.95489032 3.3115244098 -6.8903942944 
-1.9618163346 3.4463146723 -7.10083102 -1.9595558315 3.5807523934 -7.3115948434 -1.9591600912 3.7034011527 -7.5294414069 
-1.9922335507 3.8261433401 -7.744709848 -2.0235998482 3.9580476516 -7.9547512915 -2.053410198 4.0821397433 -8.16972221 
-2.0922570198 4.2101350542 -8.380928566 -2.0673262565 4.3390293584 -8.5936836256 -2.0611579752 4.4358891617 -8.8240748816 
-2.0457609566 4.5389463916 -9.0513239502 -2.0376118219 4.6474567449 -9.2763997037 -2.0620327306 4.7344755807 -9.5094905474 
-2.0678249667 4.7919692102 -9.7527207523 -2.0538188065 4.7894724803 -10.002315612 -2.061454029 4.7954964511 -10.25212637 
-2.0748719743 4.7792135014 -10.501234428 -2.0879807121 4.7450832286 -10.748546549 -2.1011430636 4.7103243177 -10.995768253 
-2.1002295418 4.7008537725 -11.245587136 -2.1048346881 4.6894878057 -11.495286169 -2.0641472069 4.6880886783 -11.741949039 
-2.0210511199 4.6768675797 -11.987950694 -1.9835084387 4.6483785121 -12.233468351 -1.9506827239 4.6230643942 -12.480007736 
-1.9004712217 4.6381689642 -12.724447211 -1.8375331244 4.6537107888 -12.96589544 -1.7745908329 4.6759472614 -13.206818265 
-1.7324654219 4.637703043 -13.450257845 -1.6671038275 4.5609504363 -13.679030438 -1.598399743 4.4811403079 -13.905768376 
-1.5362405788 4.3949975328 -14.132077148 -1.4802902991 4.3079524624 -14.359657292 -1.4132617365 4.2082396067 -14.578893508 
-1.3346237404 4.1025622853 -14.791374964 -1.2639046148 4.0215870271 -15.017077895 -1.1811068059 3.9440623254 -15.239865784 
-1.0986307142 3.8389919159 -15.45118995 -0.9637992344 3.7108445705 -15.618219079 -0.83607035007 3.5887696699 -15.795089231 
-0.67316557472 3.4694079904 -15.942448736 -0.49469270494 3.3540019539 -16.074087946 -0.32610371771 3.2396122859 -16.218976721 
-0.14820477506 3.1356714575 -16.360568636 0.012364935668 3.0233302117 -16.515800116 0.1549159304 2.9000749565 -16.680078405 
0.27000396814 2.7652117596 -16.856335778 0.3829086188 2.6314831379 -17.034855232 0.49747072388 2.4976228367 -17.212216287 
0.60083379182 2.4004242314 -17.418052405 0.66797056282 2.2936634265 -17.633910656 0.75017747883 2.1834571348 -17.842708636 
0.82913521304 2.0737203209 -18.053002496 0.84139766799 2.0604437881 -18.08156333 -0.5126230829 0.66576812132 -3.5400907975 
-0.52277406038 0.77956108233 -3.7624601292 -0.53449030145 0.89788545023 -3.982373916 -0.53515452505 1.0082199251 -4.2067081811 
-0.53644590475 1.1144897642 -4.4329935178 -0.53696454607 1.2507070137 -4.6426231721 -0.51878168185 1.3625180934 -4.8654856093 
-0.50273855675 1.4613674127 -5.0945520412 -0.49082816941 1.5488159746 -5.328455636 -0.53649707025 1.6336061495 -5.5591610277 
-0.58531137867 1.7180366746 -5.7893536638 -0.67092791921 1.7968155302 -6.0106310912 -0.74962718774 1.8695191762 -6.2365085027 
-0.83361798078 1.9305568324 -6.4639287111 -0.91700232593 1.9931029055 -6.6911621587 -0.9753928223 2.0369035191 -6.930268947 
-1.0475750197 2.0677300162 -7.1676282894 -1.1009443958 2.0963864931 -7.4101783173 -1.0913733021 2.1254249614 -7.6583015962 
-1.0949643175 2.1422303757 -7.9077102622 -1.0664266342 2.165504346 -8.1548653099 -1.1248934303 1.2712178784 -4.0456439831 
-1.3701105494 1.2938911888 -4.0025802454 -1.6157087444 1.3095406912 -3.9585732041 -1.8617989566 1.2971902892 -3.9162993943 
-2.1048102068 1.2871864009 -3.8584594899 -2.3536918581 1.2700404026 -3.8422133105 -2.6027259385 1.2509731012 -3.853097466 
-2.8484396668 1.2518422052 -3.8991844311 -3.0916583036 1.2465957369 -3.9567793032 -3.3338077351 1.2274596438 -4.0159186538 
-3.5641759617 1.2403219499 -4.1121737381 -3.7912733809 1.2235452575 -4.2153498243 -4.0204382622 1.2355273717 -4.3145460244 
-4.2478450942 1.2493184055 -4.4174826076 -4.4834828557 1.2739945955 -4.4972693924 -4.7217834282 1.3027450896 -4.567171082 
-4.9607669071 1.3311838138 -4.6348330046 -5.199558466 1.3700473821 -4.6978267701 -5.4302756926 1.4046385181 -4.7876767264 
-5.6506628044 1.4263130494 -4.9036928272 -5.8669179291 1.4821841882 -5.0156676629 -1.5694943891 1.9404801104 -4.6341551474 
-1.4895185985 2.1771164887 -4.6238063594 -1.381831314 2.3982210442 -4.5789039731 -1.2633369749 2.613011121 -4.5306928281 
-1.1462127147 2.8284302862 -4.4819435621 -1.0110186488 3.0229077887 -4.4019369025 -0.87475765502 3.2163027526 -4.3211202613 
-0.70885179817 3.3900448113 -4.2519180669 -0.54644443097 3.5633239055 -4.1738270778 -0.35505468441 3.7110359584 -4.1101787129 
-0.1483501848 3.8487343787 -4.0816761715 0.067808343634 3.9732436541 -4.0651555501 0.28749992486 4.0913120878 -4.0479667714 
0.50374755256 4.2143802933 -4.0236525716 0.73000447932 4.3146703998 -3.988301509 0.94938943915 4.4138568734 -3.9209792775 
1.1649049221 4.5245782177 -3.8593849555 1.3613181123 4.6701551205 -3.8071429788 1.5518888171 4.8233410947 -3.7550194358 
1.7445140987 4.9527028979 -3.6619548088 1.9520510821 5.0706612644 -3.5883375689 -1.9325266326 2.5204028889 -5.3477890193 
-2.0959306286 2.7087500879 -5.365801979 -2.2633102792 2.8933902522 -5.385602541 -2.4178782198 3.0885612485 -5.4083409222 
-2.5479432722 3.3001525355 -5.43684021 -2.6787178666 3.5102060499 -5.4725547247 -2.8107433098 3.7194501556 -5.5084181681 
-2.9413858908 3.9308341965 -5.5357915725 -3.0679742596 4.1429310387 -5.574396163 -3.2382620752 4.3194711085 -5.6227248669 
-3.4034421657 4.4981947511 -5.679938478 -3.5627383883 4.6713598955 -5.7644283958 -3.7260812147 4.8202216789 -5.8813013633 
-3.8851823596 4.9781299918 -5.9919891692 -4.0318882388 5.1192579924 -6.1371107474 -4.1776034972 5.267674107 -6.2758180666 
-4.3006385034 5.4063912843 -6.4435080543 -4.3993083167 5.5617470301 -6.612708705 -4.4888422999 5.7516090069 -6.7484882896 
-4.5691850661 5.9608949852 -6.8591427934 -4.6250139927 6.1476728782 -7.0152628647 -2.0326142165 2.9638917436 -6.2331597129 
-1.8379661322 2.9856981232 -6.3885193121 -1.6391598511 3.01010672 -6.5381197233 -1.4501474801 3.0433683747 -6.6983320385 
-1.259729815 3.1333976635 -6.8330014113 -1.0836211307 3.1947706356 -6.9994919203 -0.90834424086 3.2595978692 -7.1655504693 
-0.7571583047 3.3005064676 -7.3604075946 -0.60996519126 3.3440873206 -7.5577268704 -0.49002972453 3.3894289805 -7.7723419158 
-0.36913794691 3.4240836293 -7.988407261 -0.25986560906 3.4360709529 -8.212942025 -0.15574965957 3.4430170546 -8.4401239362 
-0.037148734201 3.3980559853 -8.65555913 0.11474077309 3.3523152081 -8.8487879034 0.25761539666 3.307527632 -9.0489900887 
0.37134473956 3.3170620605 -9.2714192487 0.45184428968 3.4066055838 -9.4905123337 0.52755006512 3.4859579188 -9.7151717258 
0.61963079677 3.5558990082 -9.9368232155 0.71155600796 3.6256716727 -10.158220968 -1.9618163346 3.4463146723 -7.10083102 
-2.0309726592 3.3358535308 -7.3141751996 -2.104616748 3.2322445112 -7.5294464686 -2.190188981 3.1546980797 -7.751175907 
-2.2976904794 3.0825969981 -7.9650563921 -2.3991063146 3.0081621014 -8.1810986901 -2.5152911443 2.932724715 -8.3892099249 
-2.6353777226 2.9151416721 -8.607773532 -2.7375207027 2.9036163259 -8.8356638083 -2.8064497636 2.8770738805 -9.0745032588 
-2.8451554793 2.8922226211 -9.3210238122 -2.8645235536 2.9469414014 -9.5641919285 -2.8916055665 2.9711691852 -9.8115369892 
-2.9352780296 2.950425028 -10.056817229 -2.9962578971 2.9862888521 -10.296598883 -3.0614373976 3.0026472426 -10.537397629 
-3.1480640416 3.0173237865 -10.77144981 -3.2331271899 3.0370317538 -11.005705774 -3.288509663 3.025893663 -11.249239601 
-3.320897827 3.0297427036 -11.497102853 -3.3208786737 3.0038642036 -11.745309351 -2.0235998482 3.9580476516 -7.9547512915 
-1.8641792939 4.1284428016 -8.0444763141 -1.703088157 4.2983186837 -8.1321793946 -1.5312487767 4.4435719007 -8.2411414537 
-1.3581433132 4.5892239683 -8.3475368188 -1.1862146091 4.7158958043 -8.4775166889 -1.0186464144 4.8089534404 -8.6380195752 
-0.86800983641 4.8930373924 -8.8189574385 -0.72884017182 4.9763139347 -9.0092120626 -0.59088419752 5.0655988889 -9.1976168027 
-0.45467165021 5.1541236562 -9.3876418208 -0.32760832179 5.2513809607 -9.5797249468 -0.20178605879 5.3528466093 -9.770443274 
-0.086646172337 5.4573309696 -9.9662131005 0.03316044533 5.5673355231 -10.15606929 0.1539268129 5.6761187869 -10.346021089 
0.26904779452 5.7614038547 -10.550895726 0.38126424888 5.8387279751 -10.76048687 0.52095386486 5.9122322598 -10.954352626 
0.65941290954 5.9812120167 -11.150747346 0.83217367741 6.082715558 -11.299200735 -2.0611579752 4.4358891617 -8.8240748816 
-2.2749039929 4.4474172946 -8.9532249573 -2.4981042812 4.4241463158 -9.0634070468 -2.7250734602 4.4038012478 -9.1662227557 
-2.9418091811 4.3703748547 -9.2862573487 -3.1667417949 4.3351481088 -9.3895259095 -3.3871943636 4.2952164277 -9.5004588882 
-3.6033343095 4.2456788972 -9.6159125883 -3.8152564157 4.1965541869 -9.7391026194 -4.0309626123 4.1245192607 -9.8429380958 
-4.2473437712 4.0832631956 -9.9611630135 -4.4655861722 4.0789046166 -10.083028748 -4.6819146229 4.0739012266 -10.208236445 
-4.9124821926 4.0776730423 -10.304799219 -5.1348570088 4.0688567566 -10.418692652 -5.3596202142 4.1049321565 -10.522037062 
[...]
CELL_DATA 451
SCALARS solution%20variable double
LOOKUP_TABLE default
7631.0961863 7388.7543773 7139.6176623 6881.5243429 6674.8334624 6460.4900429 6238.8450684 6009.0889722 5826.1495202 
5636.3462921 5439.9846152 5236.3250226 5075.0020466 4907.5572169 4734.2555747 4554.4268747 4412.6267518 4265.3938199 
4112.957829 3954.7154303 3830.4211703 3701.3265044 3567.6304373 3428.7930143 3320.0927138 3207.1661441 3090.185638 
2968.6702573 2873.7771199 2775.173767 2673.0094643 2566.8573276 2484.1209933 2398.1339562 2309.0255759 2216.4177156 
2144.3275838 2069.3921327 1991.7235646 1910.9870113 1848.1681481 1782.8579631 1715.1538686 1644.7586934 1589.9612794 
1532.9776648 1473.8924742 1412.4405285 1364.5223288 1314.675691 1262.974062 1209.1781926 1167.0780585 1123.2591872 
1077.7849383 1030.4349895 993.13059834 954.26318064 913.88344478 871.77727664 838.20056751 803.13377652 766.61356754 
728.41698754 697.66982838 665.42466839 631.69674241 596.22905136 570.20627857 542.90080314 514.32256243 484.24025766 
452.34691398 418.22014912 381.25077397 31.524716133 6749.6049564 6614.6486789 6476.9130676 6336.2164285 6192.3564646 
6045.1068499 5894.2130335 5739.3870518 5580.3010468 5416.5790715 5247.7865964 5073.416873 4892.8729239 4705.4433111 
4510.2688331 4306.2956223 4092.2071656 3866.32237 3626.4363097 670.07786519 5889.0203769 5766.0690046 5640.4718763 
5512.0476653 5380.5934498 5245.8809321 5107.6517606 4965.6116824 4819.4231455 4668.6958176 4512.9742563 4351.7216086 
4184.2976557 4009.9286018 3827.6644642 3636.3172115 3434.3678138 3219.8206693 2989.9636464 597.08034857 5127.8115471 
5016.5956347 4902.8931933 4786.5265305 4667.2958535 4544.9752191 4419.3074762 4289.997877 4156.7059011 4019.0346406 
3876.5167951 3728.5958476 3574.6002287 3413.7069826 3244.8891986 3066.8373495 2877.83671 2675.5665562 2456.749824 
529.55856862 4457.0056719 4357.0813317 4254.8487749 4150.1369083 4042.7525394 3932.4761624 3819.0566509 3702.2044896 
3581.5830206 3456.7969441 3327.3769389 3192.7586726 3052.2534788 2905.0062568 2749.933054 2585.6248798 2410.1923153 
2220.9991621 2014.1695228 467.6193846 3867.7842337 3778.5604291 3687.2186653 3593.5969041 3497.5114866 3398.7528666 
3297.0801965 3192.2143646 3083.8289037 2971.5379202 2854.8797516 2733.2943491 2606.0911601 2472.4021253 2331.1103759 
2180.737246 2019.2532765 1843.739454 1649.721651 411.25141714 3351.6455666 3272.4199115 3191.2715791 3108.0494155 
3022.5815332 2934.6710992 2844.0909544 2750.5766419 2653.8172287 2553.4430023 2449.0086333 2339.9695783 2225.6480758 
2105.1825104 1977.4489648 1840.9336488 1693.5123904 1532.0380011 1351.480026 360.32748779 2900.5346364 2830.5327355 
2758.802411 2685.2045725 2609.5806016 2531.748286 2451.4965969 2368.578877 2282.7038091 2193.5232083 2100.6151564 
2003.4601039 1901.4059835 1793.6154456 1678.9825576 1555.9941081 1422.4824986 1275.1442008 1108.4763502 314.62046735 
2506.9321733 2445.3452201 2382.2182599 2317.4248485 2250.8204394 2182.238537 2111.4857304 2038.3351824 1962.5179413 
1883.7111155 1801.5214012 1715.461518 1624.9154195 1529.0849561 1426.9042514 1316.8941126 1196.8954321 1063.529869 
910.94190514 273.8206194 2163.9030182 2109.9200458 2054.5762007 1997.75777 1939.3344928 1879.1559831 1817.0470936 
1752.8018088 1686.1750534 1616.871475 1544.5297108 1468.6996955 1388.8088333 1304.1095219 1213.5936805 1115.844708 
1008.7597109 888.96823314 750.39636043 237.54729814 1865.1091446 1817.9434974 1769.584749 1719.9316329 1668.8679412 
1616.259249 1561.948655 1505.7511483 1447.4460197 1386.7664171 1323.3846098 1256.8905879 1186.7598963 1112.3032344 
1032.5833356 946.26867968 851.3491562 744.52960713 619.67107334 205.37163878 1604.7882743 1563.6966929 1521.5675236 
1478.3114185 1433.8256899 1387.9913523 1340.6692639 1291.6950087 1240.8719761 1187.9617951 1132.6707738 1074.6300913 
1013.365818 948.25154482 878.42574787 802.65181679 719.0421051 624.44478147 512.79800852 176.81301309 1377.7059391 
1342.0031816 1305.4062762 1267.8371535 1229.2059656 1189.4084498 1148.3224821 1105.8034928 1061.6782506 1015.7362401 
967.7173905 917.29186573 864.03299871 807.37411936 746.53435623 680.38462113 607.18155413 523.96391016 424.86884149 
151.31366155 1179.0758439 1148.1459144 1116.4543576 1083.9337592 1050.5064349 1016.0821145 980.55491002 943.79798664 
905.65794823 865.94800335 824.43683303 780.8321774 734.75571225 685.70279643 632.97419629 575.551462 511.84592123 
439.11699059 351.79137646 128.11011473 1004.4417051 977.75133656 950.4217477 922.39375069 893.59904922 863.95816725 
833.37773012 801.74683192 768.93208293 734.7706987 699.06059173 661.5457045 621.89345087 579.65835736 534.21992534 
484.66808101 429.56928144 366.41334008 289.95885021 105.7515052 849.44811497 826.53331389 803.08427782 779.05061504 
754.37405768 728.98665505 702.80839766 675.7440359 647.67873211 618.47197575 587.94882975 555.88691957 521.99632225 
485.88695218 447.01238322 404.56520517 357.26025043 302.81064841 236.30041022 79.587573552 708.58222972 688.20994463 
667.34739753 645.94505175 623.94501296 601.27896699 577.86541644 553.60590026 528.379697 502.03619411 474.38352667 
445.17097892 414.06036818 380.57658373 344.01503084 303.24865827 256.25694724 198.63733573 75.795886984 571.77799146 
546.19487737 519.49975546 491.50620575 461.97205928 430.57305301 396.85792354 360.16590522 319.45906107 272.92848811 
216.83036953 49.41028744 7716.1954764 7800.2756303 7883.5230375 7965.9644683 8047.6253415 8128.5298178 8208.7008852 
8288.1604373 8366.9293447 8445.0275205 8522.4739809 8599.2869003 8675.4836632 8751.0809106 8826.0945842 8898.3008677 
8970.0867112 9041.3665162 9112.1526463 9182.4569996 9252.2910318 9321.6657795 9390.5918812 9446.4577522 9502.1138435 
9557.5097583 9612.6503529 9667.5403499 9722.1843437 9776.586805 9830.7520856 9862.5351137 9894.2970644 9926.0213767 
9957.7086073 9989.3593048 10020.974009 10052.553254 10084.097563 10084.096773 8960.7735588 10172.536814 11194.812663 
12007.708273 
