# vtk DataFile Version 5.1
vtk output
ASCII
DATASET UNSTRUCTURED_GRID
POINTS 474 double
0 0 -3 -0.11344901018 0.17758382911 -3.1345113591 -0.25315847539 0.33878440002 -3.2648786912 
-0.38126193464 0.50363826191 -3.4024021726 -0.5126230829 0.66576812132 -3.5400907975 -0.65843420624 0.83063257984 -3.6586607204 
-0.82297351213 0.96639713451 -3.7890248355 -0.97532665543 1.1205572503 -3.9136168835 -1.1248934303 1.2712178784 -4.0456439831 
-1.260480867 1.4416481412 -4.1684021702 -1.3678821889 1.6074581306 -4.3216079256 -1.4660695894 1.784059061 -4.4688198332 
-1.5694943891 1.9404801104 -4.6341551474 -1.6843141616 2.0801145574 -4.8068358964 -1.7920938126 2.214324268 -4.9881403376 
-1.8953148049 2.3800598251 -5.1442721788 -1.9325266326 2.5204028889 -5.3477890193 -1.973129178 2.6634701459 -5.548744719 
-1.9865147688 2.7616205381 -5.7782819197 -2.0072616269 2.8605132642 -6.0069515429 -2.0326142165 2.9638917436 -6.2331597129 
-1.9920842053 3.0592208557 -6.4606892244 -1.9658829099 3.1812169213 -6.6773235986 -1.95489032 3.3115244098 -6.8903942944 
-1.9618163346 3.4463146723 -7.10083102 -1.9595558315 3.5807523934 -7.3115948434 -1.9591600912 3.7034011527 -7.5294414069 
-1.9922335507 3.8261433401 -7.744709848 -2.0235998482 3.9580476516 -7.9547512915 -2.053410198 4.0821397433 -8.16972221 
-2.0922570198 4.2101350542 -8.380928566 -2.0673262565 4.3390293584 -8.5936836256 -2.0611579752 4.4358891617 -8.8240748816 
-2.0457609566 4.5389463916 -9.0513239502 -2.0376118219 4.6474567449 -9.2763997037 -2.0620327306 4.7344755807 -9.5094905474 
-2.0678249667 4.7919692102 -9.7527207523 -2.0538188065 4.7894724803 -10.002315612 -2.061454029 4.7954964511 -10.25212637 
-2.0748719743 4.7792135014 -10.501234428 -2.0879807121 4.7450832286 -10.748546549 -2.1011430636 4.7103243177 -10.995768253 
-2.1002295418 4.7008537725 -11.245587136 -2.1048346881 4.6894878057 -11.495286169 -2.0641472069 4.6880886783 -11.741949039 
-2.0210511199 4.6768675797 -11.987950694 -1.9835084387 4.6483785121 -12.233468351 -1.9506827239 4.6230643942 -12.480007736 
-1.9004712217 4.6381689642 -12.724447211 -1.8375331244 4.6537107888 -12.96589544 -1.7745908329 4.6759472614 -13.206818265 
-1.7324654219 4.637703043 -13.450257845 -1.6671038275 4.5609504363 -13.679030438 -1.598399743 4.4811403079 -13.905768376 
-1.5362405788 4.3949975328 -14.132077148 -1.4802902991 4.3079524624 -14.359657292 -1.4132617365 4.2082396067 -14.578893508 
-1.3346237404 4.1025622853 -14.791374964 -1.2639046148 4.0215870271 -15.017077895 -1.1811068059 3.9440623254 -15.239865784 
-1.0986307142 3.8389919159 -15.45118995 -0.9637992344 3.7108445705 -15.618219079 -0.83607035007 3.5887696699 -15.795089231 
-0.67316557472 3.4694079904 -15.942448736 -0.49469270494 3.3540019539 -16.074087946 -0.32610371771 3.2396122859 -16.218976721 
-0.14820477506 3.1356714575 -16.360568636 0.012364935668 3.0233302117 -16.515800116 0.1549159304 2.9000749565 -16.680078405 
0.27000396814 2.7652117596 -16.856335778 0.3829086188 2.6314831379 -17.034855232 0.49747072388 2.4976228367 -17.212216287 
0.60083379182 2.4004242314 -17.418052405 0.66797056282 2.2936634265 -17.633910656 0.75017747883 2.1834571348 -17.842708636 
0.82913521304 2.0737203209 -18.053002496 0.84139766799 2.0604437881 -18.08156333 -0.5126230829 0.66576812132 -3.5400907975 
-0.52277406038 0.77956108233 -3.7624601292 -0.53449030145 0.89788545023 -3.982373916 -0.53515452505 1.0082199251 -4.2067081811 
-0.53644590475 1.1144897642 -4.4329935178 -0.53696454607 1.2507070137 -4.6426231721 -0.51878168185 1.3625180934 -4.8654856093 
-0.50273855675 1.4613674127 -5.0945520412 -0.49082816941 1.5488159746 -5.328455636 -0.53649707025 1.6336061495 -5.5591610277 
-0.58531137867 1.7180366746 -5.7893536638 -0.67092791921 1.7968155302 -6.0106310912 -0.74962718774 1.8695191762 -6.2365085027 
-0.83361798078 1.9305568324 -6.4639287111 -0.91700232593 1.9931029055 -6.6911621587 -0.9753928223 2.0369035191 -6.930268947 
-1.0475750197 2.0677300162 -7.1676282894 -1.1009443958 2.0963864931 -7.4101783173 -1.0913733021 2.1254249614 -7.6583015962 
-1.0949643175 2.1422303757 -7.9077102622 -1.0664266342 2.165504346 -8.1548653099 -1.1248934303 1.2712178784 -4.0456439831 
-1.3701105494 1.2938911888 -4.0025802454 -1.6157087444 1.3095406912 -3.9585732041 -1.8617989566 1.2971902892 -3.9162993943 
-2.1048102068 1.2871864009 -3.8584594899 -2.3536918581 1.2700404026 -3.8422133105 -2.6027259385 1.2509731012 -3.853097466 
-2.8484396668 1.2518422052 -3.8991844311 -3.0916583036 1.2465957369 -3.9567793032 -3.3338077351 1.2274596438 -4.0159186538 
-3.5641759617 1.2403219499 -4.1121737381 -3.7912733809 1.2235452575 -4.2153498243 -4.0204382622 1.2355273717 -4.3145460244 
-4.2478450942 1.2493184055 -4.4174826076 -4.4834828557 1.2739945955 -4.4972693924 -4.7217834282 1.3027450896 -4.567171082 
-4.9607669071 1.3311838138 -4.6348330046 -5.199558466 1.3700473821 -4.6978267701 -5.4302756926 1.4046385181 -4.7876767264 
-5.6506628044 1.4263130494 -4.9036928272 -5.8669179291 1.4821841882 -5.0156676629 -1.5694943891 1.9404801104 -4.6341551474 
-1.4895185985 2.1771164887 -4.6238063594 -1.381831314 2.3982210442 -4.5789039731 -1.2633369749 2.613011121 -4.5306928281 
-1.1462127147 2.8284302862 -4.4819435621 -1.0110186488 3.0229077887 -4.4019369025 -0.87475765502 3.2163027526 -4.3211202613 
-0.70885179817 3.3900448113 -4.2519180669 -0.54644443097 3.5633239055 -4.1738270778 -0.35505468441 3.7110359584 -4.1101787129 
-0.1483501848 3.8487343787 -4.0816761715 0.067808343634 3.9732436541 -4.0651555501 0.28749992486 4.0913120878 -4.0479667714 
0.50374755256 4.2143802933 -4.0236525716 0.73000447932 4.3146703998 -3.988301509 0.94938943915 4.4138568734 -3.9209792775 
1.1649049221 4.5245782177 -3.8593849555 1.3613181123 4.6701551205 -3.8071429788 1.5518888171 4.8233410947 -3.7550194358 
1.7445140987 4.9527028979 -3.6619548088 1.9520510821 5.0706612644 -3.5883375689 -1.9325266326 2.5204028889 -5.3477890193 
-2.0959306286 2.7087500879 -5.365801979 -2.2633102792 2.8933902522 -5.385602541 -2.4178782198 3.0885612485 -5.4083409222 
-2.5479432722 3.3001525355 -5.43684021 -2.6787178666 3.5102060499 -5.4725547247 -2.8107433098 3.7194501556 -5.5084181681 
-2.9413858908 3.9308341965 -5.5357915725 -3.0679742596 4.1429310387 -5.574396163 -3.2382620752 4.3194711085 -5.6227248669 
-3.4034421657 4.4981947511 -5.679938478 -3.5627383883 4.6713598955 -5.7644283958 -3.7260812147 4.8202216789 -5.8813013633 
-3.8851823596 4.9781299918 -5.9919891692 -4.0318882388 5.1192579924 -6.1371107474 -4.1776034972 5.267674107 -6.2758180666 
-4.3006385034 5.4063912843 -6.4435080543 -4.3993083167 5.5617470301 -6.612708705 -4.4888422999 5.7516090069 -6.7484882896 
-4.5691850661 5.9608949852 -6.8591427934 -4.6250139927 6.1476728782 -7.0152628647 -2.0326142165 2.9638917436 -6.2331597129 
-1.8379661322 2.9856981232 -6.3885193121 -1.6391598511 3.01010672 -6.5381197233 -1.4501474801 3.0433683747 -6.6983320385 
-1.259729815 3.1333976635 -6.8330014113 -1.0836211307 3.1947706356 -6.9994919203 -0.90834424086 3.2595978692 -7.1655504693 
-0.7571583047 3.3005064676 -7.3604075946 -0.60996519126 3.3440873206 -7.5577268704 -0.49002972453 3.3894289805 -7.7723419158 
-0.36913794691 3.4240836293 -7.988407261 -0.25986560906 3.4360709529 -8.212942025 -0.15574965957 3.4430170546 -8.4401239362 
-0.037148734201 3.3980559853 -8.65555913 0.11474077309 3.3523152081 -8.8487879034 0.25761539666 3.307527632 -9.0489900887 
0.37134473956 3.3170620605 -9.2714192487 0.45184428968 3.4066055838 -9.4905123337 0.52755006512 3.4859579188 -9.7151717258 
0.61963079677 3.5558990082 -9.9368232155 0.71155600796 3.6256716727 -10.158220968 -1.9618163346 3.4463146723 -7.10083102 
-2.0309726592 3.3358535308 -7.3141751996 -2.104616748 3.2322445112 -7.5294464686 -2.190188981 3.1546980797 -7.751175907 
-2.2976904794 3.0825969981 -7.9650563921 -2.3991063146 3.0081621014 -8.1810986901 -2.5152911443 2.932724715 -8.3892099249 
-2.6353777226 2.9151416721 -8.607773532 -2.7375207027 2.9036163259 -8.8356638083 -2.8064497636 2.8770738805 -9.0745032588 
-2.8451554793 2.8922226211 -9.3210238122 -2.8645235536 2.9469414014 -9.5641919285 -2.8916055665 2.9711691852 -9.8115369892 
-2.9352780296 2.950425028 -10.056817229 -2.9962578971 2.9862888521 -10.296598883 -3.0614373976 3.0026472426 -10.537397629 
-3.1480640416 3.0173237865 -10.77144981 -3.2331271899 3.0370317538 -11.005705774 -3.288509663 3.025893663 -11.249239601 
-3.320897827 3.0297427036 -11.497102853 -3.3208786737 3.0038642036 -11.745309351 -2.0235998482 3.9580476516 -7.9547512915 
-1.8641792939 4.1284428016 -8.0444763141 -1.703088157 4.2983186837 -8.1321793946 -1.5312487767 4.4435719007 -8.2411414537 
-1.3581433132 4.5892239683 -8.3475368188 -1.1862146091 4.7158958043 -8.4775166889 -1.0186464144 4.8089534404 -8.6380195752 
-0.86800983641 4.8930373924 -8.8189574385 -0.72884017182 4.9763139347 -9.0092120626 -0.59088419752 5.0655988889 -9.1976168027 
-0.45467165021 5.1541236562 -9.3876418208 -0.32760832179 5.2513809607 -9.5797249468 -0.20178605879 5.3528466093 -9.770443274 
-0.086646172337 5.4573309696 -9.9662131005 0.03316044533 5.5673355231 -10.15606929 0.1539268129 5.6761187869 -10.346021089 
0.26904779452 5.7614038547 -10.550895726 0.38126424888 5.8387279751 -10.76048687 0.52095386486 5.9122322598 -10.954352626 
0.65941290954 5.9812120167 -11.150747346 0.83217367741 6.082715558 -11.299200735 -2.0611579752 4.4358891617 -8.8240748816 
-2.2749039929 4.4474172946 -8.9532249573 -2.4981042812 4.4241463158 -9.0634070468 -2.7250734602 4.4038012478 -9.1662227557 
-2.9418091811 4.3703748547 -9.2862573487 -3.1667417949 4.3351481088 -9.3895259095 -3.3871943636 4.2952164277 -9.5004588882 
-3.6033343095 4.2456788972 -9.6159125883 -3.8152564157 4.1965541869 -9.7391026194 -4.0309626123 4.1245192607 -9.8429380958 
-4.2473437712 4.0832631956 -9.9611630135 -4.4655861722 4.0789046166 -10.083028748 -4.6819146229 4.0739012266 -10.208236445 
-4.9124821926 4.0776730423 -10.304799219 -5.1348570088 4.0688567566 -10.418692652 -5.3596202142 4.1049321565 -10.522037062 
[...]
CELL_DATA 451
SCALARS solution%20variable double
LOOKUP_TABLE default
7631.2892654 7388.9444479 7139.804649 6881.7081766 6675.0146721 6460.6685562 6239.0208164 6009.2618929 5826.3201765 
5636.514623 5440.1505616 5236.4885344 5075.1637147 4907.7169962 4734.4134212 4554.5827563 4412.7812816 4265.5469749 
4113.109586 3954.8657822 3830.5707486 3701.4753149 3567.7784848 3428.9403249 3320.2399351 3207.3133192 3090.3328073 
2968.8174897 2873.9250783 2775.3225408 2673.1591385 2567.0080248 2484.2733889 2398.2881963 2309.1817991 2216.5761095 
2144.4888274 2069.5564382 1991.8911323 1911.1581044 1848.3434253 1783.0377087 1715.3383494 1644.9482541 1590.1565036 
1533.178908 1474.1000645 1412.6548888 1364.7438612 1314.9048046 1263.2111248 1209.4236828 1167.3320058 1123.5220088 
1078.0569909 1030.7167518 993.42140558 954.56338552 914.19331857 872.09721979 838.52864319 803.47010078 766.95814855 
728.76995313 698.02792727 665.78754693 632.06390873 596.60009695 570.58098243 543.278249 514.70162154 484.61978382 
452.72579007 418.59737942 381.62567869 31.541914532 6749.7874451 6614.829756 6477.0926634 6336.3944722 6192.5328853 
6045.2815762 5894.3859943 5739.5581765 5580.4702659 5416.7463179 5247.951806 5073.579987 4893.033891 4705.6020911 
4510.425402 4306.4499804 4092.3593497 3866.4724728 3626.5845129 670.09405427 5889.1918865 5766.2390258 5640.6403282 
5512.2144656 5380.7585148 5246.044177 5107.8130998 4965.7710296 4819.5804145 4668.8509229 4513.1271141 4351.8721388 
4184.4457839 4010.0742634 3827.8076097 3636.4578159 3434.5058909 3219.9562973 2990.0970126 597.09642002 5127.9736051 
5016.7561501 4903.0520734 4786.6836805 4667.4511762 4545.1286153 4419.4588444 4290.1471139 4156.8529017 4019.179299 
3876.6590052 3728.7355044 3574.7372306 3413.8412349 3245.0206194 3066.9658791 2877.9623277 2675.6893111 2456.8698947 
529.57455202 4457.1600799 4357.2341652 4254.9999287 4150.286274 4042.9000053 3932.6216136 3819.199969 3702.3455525 
3581.7217031 3456.9331178 3327.5104724 3192.8894333 3052.3813337 2905.1310761 2750.0547159 2585.7432804 2410.3073865 
2221.1109067 2014.2780903 467.63535513 3867.9331133 3778.7077223 3687.3642531 3593.7406633 3497.6532895 3398.8925809 
3297.217685 3192.3494848 3083.961508 2971.6678551 2855.0068583 2733.4184634 2606.2121137 2472.5197476 2331.2244984 
2180.8477107 2019.3599538 1843.8422808 1649.8207217 411.26751036 3351.7914251 3272.5641889 3191.4141402 3108.1901199 
3022.7202348 2934.807646 2844.2251877 2750.708396 2653.9463303 2553.5692698 2449.1318763 2340.0895971 2225.7646616 
2105.2954458 1977.5580264 1841.038614 1693.6130527 1532.134209 1351.5717861 360.34391689 2900.6804549 2830.6769932 
2758.9449529 2685.3452371 2609.7192204 2531.8846832 2451.6305879 2368.7102683 2282.8323969 2193.6487775 2100.7374794 
2003.5789392 1901.5210745 1793.7265198 1679.0893267 1556.0962713 1422.5797544 1275.2362821 1108.5631348 314.63753994 
2507.0815173 2445.4930411 2382.3643773 2317.569074 2250.962576 2182.3783782 2111.623059 2038.4697695 1962.6495451 
1883.839479 1801.6462506 1715.5825603 1625.0323397 1529.1974141 1427.0118796 1316.9965143 1196.9921871 1063.6205609 
911.02622996 273.83876886 2164.0601557 2110.0757266 2054.7302102 1997.909884 1939.484476 1879.3035883 1817.1920604 
1752.9438618 1686.3139003 1617.0068042 1544.6611886 1468.8269624 1388.931499 1304.2271604 1213.705823 1115.9508363 
1008.8592531 889.06057687 750.48095694 237.56711169 1865.279143 1818.1121591 1769.7518128 1720.0968253 1669.0309744 
1616.4198202 1562.1064443 1505.9058166 1447.5972062 1386.913736 1323.5276462 1257.0288924 1186.8929782 1112.430553 
1032.7042882 946.38258708 851.45525401 744.62703225 619.75893095 205.39388551 1604.9770225 1563.8843302 1521.7537243 
1478.4958402 1434.0079721 1388.1711145 1340.8461034 1291.868498 1241.0416589 1188.1271824 1132.831338 1074.7852591 
1013.5149602 948.39396354 878.56066836 802.77835449 719.15923207 624.55128825 512.89251756 176.83868669 1377.919982 
1342.2165316 1305.6185178 1268.0478488 1229.4146522 1189.6146383 1148.5256534 1106.0030942 1061.8736913 1015.9268852 
967.90255337 917.47081085 864.20491742 807.53811148 746.68940406 680.52955114 607.31497988 524.08414975 424.97384386 
151.34397046 1179.3218705 1148.391998 1116.6999594 1084.1783091 1050.7493282 1016.3227092 980.79252273 944.03190365 
905.88740563 866.17217959 824.65483911 781.04304376 734.95837078 685.89605515 633.15670223 575.72164493 512.00190469 
439.25644744 351.91132389 128.14639218 1004.7254385 978.03642615 950.7075081 922.67945281 893.88391694 864.24137349 
833.65839202 802.02400482 769.20475279 735.03777232 699.32088382 661.79792032 622.13616211 579.8899677 534.43861924 
484.87174415 429.75537017 366.57865537 290.09915514 105.79470353 849.77258325 826.8615669 803.41544055 779.38374769 
754.70815131 729.32062634 703.14108257 676.07418191 648.00498837 618.79288052 588.26279374 556.19220366 522.2910064 
486.16889091 447.27913909 404.81394481 357.48757284 303.01228668 236.47074357 79.635337189 708.94194548 688.57546045 
667.71756503 646.31862292 624.320633 601.65516572 578.2405978 553.97832928 528.74748302 502.39726878 474.73561411 
445.51155381 414.38659469 380.88522222 344.30228666 303.5099177 256.48626779 198.82633095 75.8598252 572.14774893 
546.56178169 519.8620136 491.86186457 462.31898136 430.90888471 397.18005246 360.4714051 319.74463124 273.1904496 
217.06518307 49.448861974 7716.3896106 7800.4707408 7883.7190471 7966.1613017 8047.8229248 8128.7280787 8208.8997531 
8288.3598429 8367.12922 8445.2277992 8522.6745976 8599.4877914 8675.6847659 8751.2821635 8826.2959271 8898.5022808 
8970.2881333 9041.5678888 9112.3539126 9182.6581034 9252.4919182 9321.8663946 9390.7921722 9446.6579246 9502.3138373 
9557.709516 9612.8498178 9667.7394664 9722.383057 9776.7850612 9830.9498318 9862.7327321 9894.494494 9926.2185576 
9957.9054802 9989.5558109 10021.170091 10052.748854 10084.292624 10084.291837 8960.9725503 10172.721396 11194.984482 
12007.868403 
