# vtk DataFile Version 5.1
vtk output
ASCII
DATASET UNSTRUCTURED_GRID
POINTS 474 double
0 0 -3 -0.11344901018 0.17758382911 -3.1345113591 -0.25315847539 0.33878440002 -3.2648786912 
-0.38126193464 0.50363826191 -3.4024021726 -0.5126230829 0.66576812132 -3.5400907975 -0.65843420624 0.83063257984 -3.6586607204 
-0.82297351213 0.96639713451 -3.7890248355 -0.97532665543 1.1205572503 -3.9136168835 -1.1248934303 1.2712178784 -4.0456439831 
-1.260480867 1.4416481412 -4.1684021702 -1.3678821889 1.6074581306 -4.3216079256 -1.4660695894 1.784059061 -4.4688198332 
-1.5694943891 1.9404801104 -4.6341551474 -1.6843141616 2.0801145574 -4.8068358964 -1.7920938126 2.214324268 -4.9881403376 
-1.8953148049 2.3800598251 -5.1442721788 -1.9325266326 2.5204028889 -5.3477890193 -1.973129178 2.6634701459 -5.548744719 
-1.9865147688 2.7616205381 -5.7782819197 -2.0072616269 2.8605132642 -6.0069515429 -2.0326142165 2.9638917436 -6.2331597129 
-1.9920842053 3.0592208557 -6.4606892244 -1.9658829099 3.1812169213 -6.6773235986 -1.95489032 3.3115244098 -6.8903942944 
-1.9618163346 3.4463146723 -7.10083102 -1.9595558315 3.5807523934 -7.3115948434 -1.9591600912 3.7034011527 -7.5294414069 
-1.9922335507 3.8261433401 -7.744709848 -2.0235998482 3.9580476516 -7.9547512915 -2.053410198 4.0821397433 -8.16972221 
-2.0922570198 4.2101350542 -8.380928566 -2.0673262565 4.3390293584 -8.5936836256 -2.0611579752 4.4358891617 -8.8240748816 
-2.0457609566 4.5389463916 -9.0513239502 -2.0376118219 4.6474567449 -9.2763997037 -2.0620327306 4.7344755807 -9.5094905474 
-2.0678249667 4.7919692102 -9.7527207523 -2.0538188065 4.7894724803 -10.002315612 -2.061454029 4.7954964511 -10.25212637 
-2.0748719743 4.7792135014 -10.501234428 -2.0879807121 4.7450832286 -10.748546549 -2.1011430636 4.7103243177 -10.995768253 
-2.1002295418 4.7008537725 -11.245587136 -2.1048346881 4.6894878057 -11.495286169 -2.0641472069 4.6880886783 -11.741949039 
-2.0210511199 4.6768675797 -11.987950694 -1.9835084387 4.6483785121 -12.233468351 -1.9506827239 4.6230643942 -12.480007736 
-1.9004712217 4.6381689642 -12.724447211 -1.8375331244 4.6537107888 -12.96589544 -1.7745908329 4.6759472614 -13.206818265 
-1.7324654219 4.637703043 -13.450257845 -1.6671038275 4.5609504363 -13.679030438 -1.598399743 4.4811403079 -13.905768376 
-1.5362405788 4.3949975328 -14.132077148 -1.4802902991 4.3079524624 -14.359657292 -1.4132617365 4.2082396067 -14.578893508 
-1.3346237404 4.1025622853 -14.791374964 -1.2639046148 4.0215870271 -15.017077895 -1.1811068059 3.9440623254 -15.239865784 
-1.0986307142 3.8389919159 -15.45118995 -0.9637992344 3.7108445705 -15.618219079 -0.83607035007 3.5887696699 -15.795089231 
-0.67316557472 3.4694079904 -15.942448736 -0.49469270494 3.3540019539 -16.074087946 -0.32610371771 3.2396122859 -16.218976721 
-0.14820477506 3.1356714575 -16.360568636 0.012364935668 3.0233302117 -16.515800116 0.1549159304 2.9000749565 -16.680078405 
0.27000396814 2.7652117596 -16.856335778 0.3829086188 2.6314831379 -17.034855232 0.49747072388 2.4976228367 -17.212216287 
0.60083379182 2.4004242314 -17.418052405 0.66797056282 2.2936634265 -17.633910656 0.75017747883 2.1834571348 -17.842708636 
0.82913521304 2.0737203209 -18.053002496 0.84139766799 2.0604437881 -18.08156333 -0.5126230829 0.66576812132 -3.5400907975 
-0.52277406038 0.77956108233 -3.7624601292 -0.53449030145 0.89788545023 -3.982373916 -0.53515452505 1.0082199251 -4.2067081811 
-0.53644590475 1.1144897642 -4.4329935178 -0.53696454607 1.2507070137 -4.6426231721 -0.51878168185 1.3625180934 -4.8654856093 
-0.50273855675 1.4613674127 -5.0945520412 -0.49082816941 1.5488159746 -5.328455636 -0.53649707025 1.6336061495 -5.5591610277 
-0.58531137867 1.7180366746 -5.7893536638 -0.67092791921 1.7968155302 -6.0106310912 -0.74962718774 1.8695191762 -6.2365085027 
-0.83361798078 1.9305568324 -6.4639287111 -0.91700232593 1.9931029055 -6.6911621587 -0.9753928223 2.0369035191 -6.930268947 
-1.0475750197 2.0677300162 -7.1676282894 -1.1009443958 2.0963864931 -7.4101783173 -1.0913733021 2.1254249614 -7.6583015962 
-1.0949643175 2.1422303757 -7.9077102622 -1.0664266342 2.165504346 -8.1548653099 -1.1248934303 1.2712178784 -4.0456439831 
-1.3701105494 1.2938911888 -4.0025802454 -1.6157087444 1.3095406912 -3.9585732041 -1.8617989566 1.2971902892 -3.9162993943 
-2.1048102068 1.2871864009 -3.8584594899 -2.3536918581 1.2700404026 -3.8422133105 -2.6027259385 1.2509731012 -3.853097466 
-2.8484396668 1.2518422052 -3.8991844311 -3.0916583036 1.2465957369 -3.9567793032 -3.3338077351 1.2274596438 -4.0159186538 
-3.5641759617 1.2403219499 -4.1121737381 -3.7912733809 1.2235452575 -4.2153498243 -4.0204382622 1.2355273717 -4.3145460244 
-4.2478450942 1.2493184055 -4.4174826076 -4.4834828557 1.2739945955 -4.4972693924 -4.7217834282 1.3027450896 -4.567171082 
-4.9607669071 1.3311838138 -4.6348330046 -5.199558466 1.3700473821 -4.6978267701 -5.4302756926 1.4046385181 -4.7876767264 
-5.6506628044 1.4263130494 -4.9036928272 -5.8669179291 1.4821841882 -5.0156676629 -1.5694943891 1.9404801104 -4.6341551474 
-1.4895185985 2.1771164887 -4.6238063594 -1.381831314 2.3982210442 -4.5789039731 -1.2633369749 2.613011121 -4.5306928281 
-1.1462127147 2.8284302862 -4.4819435621 -1.0110186488 3.0229077887 -4.4019369025 -0.87475765502 3.2163027526 -4.3211202613 
-0.70885179817 3.3900448113 -4.2519180669 -0.54644443097 3.5633239055 -4.1738270778 -0.35505468441 3.7110359584 -4.1101787129 
-0.1483501848 3.8487343787 -4.0816761715 0.067808343634 3.9732436541 -4.0651555501 0.28749992486 4.0913120878 -4.0479667714 
0.50374755256 4.2143802933 -4.0236525716 0.73000447932 4.3146703998 -3.988301509 0.94938943915 4.4138568734 -3.9209792775 
1.1649049221 4.5245782177 -3.8593849555 1.3613181123 4.6701551205 -3.8071429788 1.5518888171 4.8233410947 -3.7550194358 
1.7445140987 4.9527028979 -3.6619548088 1.9520510821 5.0706612644 -3.5883375689 -1.9325266326 2.5204028889 -5.3477890193 
-2.0959306286 2.7087500879 -5.365801979 -2.2633102792 2.8933902522 -5.385602541 -2.4178782198 3.0885612485 -5.4083409222 
-2.5479432722 3.3001525355 -5.43684021 -2.6787178666 3.5102060499 -5.4725547247 -2.8107433098 3.7194501556 -5.5084181681 
-2.9413858908 3.9308341965 -5.5357915725 -3.0679742596 4.1429310387 -5.574396163 -3.2382620752 4.3194711085 -5.6227248669 
-3.4034421657 4.4981947511 -5.679938478 -3.5627383883 4.6713598955 -5.7644283958 -3.7260812147 4.8202216789 -5.8813013633 
-3.8851823596 4.9781299918 -5.9919891692 -4.0318882388 5.1192579924 -6.1371107474 -4.1776034972 5.267674107 -6.2758180666 
-4.3006385034 5.4063912843 -6.4435080543 -4.3993083167 5.5617470301 -6.612708705 -4.4888422999 5.7516090069 -6.7484882896 
-4.5691850661 5.9608949852 -6.8591427934 -4.6250139927 6.1476728782 -7.0152628647 -2.0326142165 2.9638917436 -6.2331597129 
-1.8379661322 2.9856981232 -6.3885193121 -1.6391598511 3.01010672 -6.5381197233 -1.4501474801 3.0433683747 -6.6983320385 
-1.259729815 3.1333976635 -6.8330014113 -1.0836211307 3.1947706356 -6.9994919203 -0.90834424086 3.2595978692 -7.1655504693 
-0.7571583047 3.3005064676 -7.3604075946 -0.60996519126 3.3440873206 -7.5577268704 -0.49002972453 3.3894289805 -7.7723419158 
-0.36913794691 3.4240836293 -7.988407261 -0.25986560906 3.4360709529 -8.212942025 -0.15574965957 3.4430170546 -8.4401239362 
-0.037148734201 3.3980559853 -8.65555913 0.11474077309 3.3523152081 -8.8487879034 0.25761539666 3.307527632 -9.0489900887 
0.37134473956 3.3170620605 -9.2714192487 0.45184428968 3.4066055838 -9.4905123337 0.52755006512 3.4859579188 -9.7151717258 
0.61963079677 3.5558990082 -9.9368232155 0.71155600796 3.6256716727 -10.158220968 -1.9618163346 3.4463146723 -7.10083102 
-2.0309726592 3.3358535308 -7.3141751996 -2.104616748 3.2322445112 -7.5294464686 -2.190188981 3.1546980797 -7.751175907 
-2.2976904794 3.0825969981 -7.9650563921 -2.3991063146 3.0081621014 -8.1810986901 -2.5152911443 2.932724715 -8.3892099249 
-2.6353777226 2.9151416721 -8.607773532 -2.7375207027 2.9036163259 -8.8356638083 -2.8064497636 2.8770738805 -9.0745032588 
-2.8451554793 2.8922226211 -9.3210238122 -2.8645235536 2.9469414014 -9.5641919285 -2.8916055665 2.9711691852 -9.8115369892 
-2.9352780296 2.950425028 -10.056817229 -2.9962578971 2.9862888521 -10.296598883 -3.0614373976 3.0026472426 -10.537397629 
-3.1480640416 3.0173237865 -10.77144981 -3.2331271899 3.0370317538 -11.005705774 -3.288509663 3.025893663 -11.249239601 
-3.320897827 3.0297427036 -11.497102853 -3.3208786737 3.0038642036 -11.745309351 -2.0235998482 3.9580476516 -7.9547512915 
-1.8641792939 4.1284428016 -8.0444763141 -1.703088157 4.2983186837 -8.1321793946 -1.5312487767 4.4435719007 -8.2411414537 
-1.3581433132 4.5892239683 -8.3475368188 -1.1862146091 4.7158958043 -8.4775166889 -1.0186464144 4.8089534404 -8.6380195752 
-0.86800983641 4.8930373924 -8.8189574385 -0.72884017182 4.9763139347 -9.0092120626 -0.59088419752 5.0655988889 -9.1976168027 
-0.45467165021 5.1541236562 -9.3876418208 -0.32760832179 5.2513809607 -9.5797249468 -0.20178605879 5.3528466093 -9.770443274 
-0.086646172337 5.4573309696 -9.9662131005 0.03316044533 5.5673355231 -10.15606929 0.1539268129 5.6761187869 -10.346021089 
0.26904779452 5.7614038547 -10.550895726 0.38126424888 5.8387279751 -10.76048687 0.52095386486 5.9122322598 -10.954352626 
0.65941290954 5.9812120167 -11.150747346 0.83217367741 6.082715558 -11.299200735 -2.0611579752 4.4358891617 -8.8240748816 
-2.2749039929 4.4474172946 -8.9532249573 -2.4981042812 4.4241463158 -9.0634070468 -2.7250734602 4.4038012478 -9.1662227557 
-2.9418091811 4.3703748547 -9.2862573487 -3.1667417949 4.3351481088 -9.3895259095 -3.3871943636 4.2952164277 -9.5004588882 
-3.6033343095 4.2456788972 -9.6159125883 -3.8152564157 4.1965541869 -9.7391026194 -4.0309626123 4.1245192607 -9.8429380958 
-4.2473437712 4.0832631956 -9.9611630135 -4.4655861722 4.0789046166 -10.083028748 -4.6819146229 4.0739012266 -10.208236445 
-4.9124821926 4.0776730423 -10.304799219 -5.1348570088 4.0688567566 -10.418692652 -5.3596202142 4.1049321565 -10.522037062 
[...]
CELL_DATA 451
SCALARS solution%20variable double
LOOKUP_TABLE default
7631.3830916 7389.0368122 7139.8955146 6881.79751 6675.1027303 6460.7553042 6239.1062206 6009.345923 5826.4031063 
5636.5964227 5440.2312025 5236.5679922 5075.2422765 4907.7946401 4734.4901257 4554.6585059 4412.8563743 4265.6213992 
4113.1833309 3954.9388442 3830.6434345 3701.5476275 3567.8504264 3429.011908 3320.3114746 3207.3848359 3090.4043208 
2968.8890334 2873.9969742 2775.3948324 2673.231867 2567.0812496 2484.3474382 2398.363141 2309.2577063 2216.6530704 
2144.5671717 2069.6362687 1991.9725464 1911.2412297 1848.4285813 1783.1250337 1715.4279725 1645.0403426 1590.2513406 
1533.2766659 1474.2009022 1412.7590114 1364.8514636 1315.0160848 1263.3262611 1209.542907 1167.4553317 1123.6496383 
1078.1890967 1030.8535654 993.56260406 954.70913929 914.34375849 872.2525393 838.68790328 803.63335694 767.12540396 
728.94126887 698.20172996 665.96366462 632.24210248 596.78016822 570.76282636 543.46142122 514.88557476 484.8039624 
452.90965258 418.78044342 381.80761501 31.550257499 6749.8761248 6614.9177499 6477.1799374 6336.4809921 6192.6186164 
6045.366484 5894.4700441 5739.6413341 5580.5524975 5416.8275909 5248.0320893 5073.659252 4893.1121128 4705.67925 
4510.5014865 4306.5249906 4092.4333035 3866.5454152 3626.6565323 670.10192124 5889.275231 5766.321647 5640.7221868 
5512.2955216 5380.8387277 5246.1235054 5107.8915021 4965.848464 4819.656839 4668.9262959 4513.201395 4351.9452887 
4184.5177666 4010.1450474 3827.8771712 3636.5261425 3434.5729895 3220.0222057 2990.1618219 597.10422982 5128.0523564 
5016.8341518 4903.1292805 4786.7600469 4667.5266547 4545.2031576 4419.5324012 4290.2196351 4156.9243362 4019.2495953 
3876.7281117 3728.8033702 3574.8038063 3413.9064746 3245.0844832 3067.0283379 2878.0233716 2675.7489638 2456.9282431 
529.58231903 4457.2351134 4357.3084336 4255.0733809 4150.3588573 4042.9716656 3932.6922949 3819.2696136 3702.4141014 
3581.7890953 3456.9992907 3327.5753625 3192.952976 3052.4434644 2905.1917316 2750.1138372 2585.800817 2410.3633051 
2221.165209 2014.3308487 467.64311585 3868.0054598 3778.779298 3687.4350001 3593.8105217 3497.7221973 3398.9604738 
3297.2844964 3192.4151455 3084.0259461 2971.7309961 2855.0686249 2733.478776 2606.2708904 2472.5769055 2331.2799557 
2180.9013906 2019.4117933 1843.8922493 1649.868865 411.27533067 3351.8623027 3272.6342982 3191.4834157 3108.2584931 
3022.7876348 2934.873999 2844.2904166 2750.7724203 2654.0090656 2553.630628 2449.1917649 2340.147919 2225.8213153 
2105.3503257 1977.611024 1841.0896211 1693.6619689 1532.1809607 1351.6163766 360.35190035 2900.7513116 2830.7470915 
2759.0142175 2685.4135896 2609.786579 2531.9509623 2451.6956979 2368.7741151 2282.8948815 2193.7097953 2100.7969199 
2003.636685 1901.577001 1793.7804945 1679.1412094 1556.145916 1422.6270145 1275.281028 1108.605307 314.64583598 
2507.1540849 2445.5648686 2382.4353772 2317.6391548 2251.0316419 2182.4463288 2111.6897889 2038.5351674 1962.7134934 
1883.9018529 1801.7069171 1715.641377 1625.0891535 1529.2520598 1427.0641784 1317.0462736 1197.0392028 1063.6646306 
911.06720592 273.84758795 2164.1365064 2110.1513696 2054.8050414 1997.9837943 1939.5573512 1879.3753083 1817.2624985 
1753.0128843 1686.3813651 1617.0725601 1544.7250733 1468.888801 1388.9911022 1304.284321 1213.7603133 1116.0024044 
1008.9076212 889.10544752 750.52206346 237.576739 1865.3617366 1818.1941035 1769.8329813 1720.1770846 1669.110185 
1616.4978349 1562.1831075 1505.9809637 1447.6706619 1386.9853129 1323.5971425 1257.0960899 1186.9576385 1112.4924133 
1032.7630557 946.4379317 851.50680445 744.67436918 619.80161966 205.4046944 1605.0687166 1563.975485 1521.8441814 
1478.5854334 1434.0965262 1388.2584447 1340.9320141 1291.9527813 1241.1240933 1188.2075302 1132.909343 1074.8606427 
1013.5874168 948.4631539 878.6262162 802.83983009 719.21613606 624.60303308 512.93843408 176.85115938 1378.0239508 
1342.3201641 1305.7216122 1268.1501924 1229.5160203 1189.7147933 1148.624343 1106.1000501 1061.9686263 1016.0194911 
967.9924965 917.55773398 864.28842772 807.61777173 746.7647199 680.59995257 607.37979348 524.1425586 425.02485183 
151.35869295 1179.4413552 1148.5115103 1116.8192378 1084.2970765 1050.8672911 1016.4395558 980.90792106 944.14550713 
905.9988433 866.28105246 824.76071546 781.14545275 735.05679373 685.9899132 633.24533838 575.80429667 512.07766083 
439.32417798 351.96958058 128.16401014 1004.8632081 978.1748531 950.84625965 922.81817496 894.02223288 864.37888166 
833.79466381 802.15858162 769.33714235 735.16744393 699.44726211 661.92037679 622.25400344 580.00241903 534.5447993 
484.97062667 429.8457205 366.65892081 290.16727939 105.8156759 849.93009505 827.02091144 803.57619307 779.545452 
754.87031773 729.48272911 703.30255686 676.23441996 648.16333479 618.94862613 588.41516758 556.34036209 522.43401808 
486.30571519 447.40859374 404.93465559 357.59789024 303.11014133 236.5534098 79.658513675 709.11652563 688.75284354 
667.89719363 646.4998914 624.50288405 601.83768618 578.42261366 554.15899927 528.92589057 502.57241131 474.90638857 
445.6767364 414.54481126 381.03490302 344.44159306 303.63661423 256.59747515 198.91798575 75.890826994 572.32718966 
546.73983271 520.03780538 492.03445 462.48732409 431.07184365 397.33636119 360.61964523 319.88320307 273.31757056 
217.17913952 49.46757508 7716.4839495 7800.5655541 7883.8142974 7966.2569522 8047.9189398 8128.824423 8208.9963923 
8288.4567434 8367.2263489 8445.325124 8522.7720868 8599.5854138 8675.7824912 8751.3799619 8826.3937692 8898.6001571 
8970.3860138 9041.6657454 9112.4517174 9182.7558293 9252.5895385 9321.9638831 9390.8895032 9446.755198 9502.4110239 
9557.8065879 9612.9467474 9667.8362267 9722.4796213 9776.8814035 9831.0459263 9862.8287645 9894.5904346 9926.3143773 
9958.0011502 9989.6513028 10021.265376 10052.843905 10084.387414 10084.386628 8961.0692497 10172.811094 11195.067978 
12007.946219 
