# vtk DataFile Version 5.1
vtk output
ASCII
DATASET UNSTRUCTURED_GRID
POINTS 474 double
0 0 -3 -0.11344901018 0.17758382911 -3.1345113591 -0.25315847539 0.33878440002 -3.2648786912 
-0.38126193464 0.50363826191 -3.4024021726 -0.5126230829 0.66576812132 -3.5400907975 -0.65843420624 0.83063257984 -3.6586607204 
-0.82297351213 0.96639713451 -3.7890248355 -0.97532665543 1.1205572503 -3.9136168835 -1.1248934303 1.2712178784 -4.0456439831 
-1.260480867 1.4416481412 -4.1684021702 -1.3678821889 1.6074581306 -4.3216079256 -1.4660695894 1.784059061 -4.4688198332 
-1.5694943891 1.9404801104 -4.6341551474 -1.6843141616 2.0801145574 -4.8068358964 -1.7920938126 2.214324268 -4.9881403376 
-1.8953148049 2.3800598251 -5.1442721788 -1.9325266326 2.5204028889 -5.3477890193 -1.973129178 2.6634701459 -5.548744719 
-1.9865147688 2.7616205381 -5.7782819197 -2.0072616269 2.8605132642 -6.0069515429 -2.0326142165 2.9638917436 -6.2331597129 
-1.9920842053 3.0592208557 -6.4606892244 -1.9658829099 3.1812169213 -6.6773235986 -1.95489032 3.3115244098 -6.8903942944 
-1.9618163346 3.4463146723 -7.10083102 -1.9595558315 3.5807523934 -7.3115948434 -1.9591600912 3.7034011527 -7.5294414069 
-1.9922335507 3.8261433401 -7.744709848 -2.0235998482 3.9580476516 -7.9547512915 -2.053410198 4.0821397433 -8.16972221 
-2.0922570198 4.2101350542 -8.380928566 -2.0673262565 4.3390293584 -8.5936836256 -2.0611579752 4.4358891617 -8.8240748816 
-2.0457609566 4.5389463916 -9.0513239502 -2.0376118219 4.6474567449 -9.2763997037 -2.0620327306 4.7344755807 -9.5094905474 
-2.0678249667 4.7919692102 -9.7527207523 -2.0538188065 4.7894724803 -10.002315612 -2.061454029 4.7954964511 -10.25212637 
-2.0748719743 4.7792135014 -10.501234428 -2.0879807121 4.7450832286 -10.748546549 -2.1011430636 4.7103243177 -10.995768253 
-2.1002295418 4.7008537725 -11.245587136 -2.1048346881 4.6894878057 -11.495286169 -2.0641472069 4.6880886783 -11.741949039 
-2.0210511199 4.6768675797 -11.987950694 -1.9835084387 4.6483785121 -12.233468351 -1.9506827239 4.6230643942 -12.480007736 
-1.9004712217 4.6381689642 -12.724447211 -1.8375331244 4.6537107888 -12.96589544 -1.7745908329 4.6759472614 -13.206818265 
-1.7324654219 4.637703043 -13.450257845 -1.6671038275 4.5609504363 -13.679030438 -1.598399743 4.4811403079 -13.905768376 
-1.5362405788 4.3949975328 -14.132077148 -1.4802902991 4.3079524624 -14.359657292 -1.4132617365 4.2082396067 -14.578893508 
-1.3346237404 4.1025622853 -14.791374964 -1.2639046148 4.0215870271 -15.017077895 -1.1811068059 3.9440623254 -15.239865784 
-1.0986307142 3.8389919159 -15.45118995 -0.9637992344 3.7108445705 -15.618219079 -0.83607035007 3.5887696699 -15.795089231 
-0.67316557472 3.4694079904 -15.942448736 -0.49469270494 3.3540019539 -16.074087946 -0.32610371771 3.2396122859 -16.218976721 
-0.14820477506 3.1356714575 -16.360568636 0.012364935668 3.0233302117 -16.515800116 0.1549159304 2.9000749565 -16.680078405 
0.27000396814 2.7652117596 -16.856335778 0.3829086188 2.6314831379 -17.034855232 0.49747072388 2.4976228367 -17.212216287 
0.60083379182 2.4004242314 -17.418052405 0.66797056282 2.2936634265 -17.633910656 0.75017747883 2.1834571348 -17.842708636 
0.82913521304 2.0737203209 -18.053002496 0.84139766799 2.0604437881 -18.08156333 -0.5126230829 0.66576812132 -3.5400907975 
-0.52277406038 0.77956108233 -3.7624601292 -0.53449030145 0.89788545023 -3.982373916 -0.53515452505 1.0082199251 -4.2067081811 
-0.53644590475 1.1144897642 -4.4329935178 -0.53696454607 1.2507070137 -4.6426231721 -0.51878168185 1.3625180934 -4.8654856093 
-0.50273855675 1.4613674127 -5.0945520412 -0.49082816941 1.5488159746 -5.328455636 -0.53649707025 1.6336061495 -5.5591610277 
-0.58531137867 1.7180366746 -5.7893536638 -0.67092791921 1.7968155302 -6.0106310912 -0.74962718774 1.8695191762 -6.2365085027 
-0.83361798078 1.9305568324 -6.4639287111 -0.91700232593 1.9931029055 -6.6911621587 -0.9753928223 2.0369035191 -6.930268947 
-1.0475750197 2.0677300162 -7.1676282894 -1.1009443958 2.0963864931 -7.4101783173 -1.0913733021 2.1254249614 -7.6583015962 
-1.0949643175 2.1422303757 -7.9077102622 -1.0664266342 2.165504346 -8.1548653099 -1.1248934303 1.2712178784 -4.0456439831 
-1.3701105494 1.2938911888 -4.0025802454 -1.6157087444 1.3095406912 -3.9585732041 -1.8617989566 1.2971902892 -3.9162993943 
-2.1048102068 1.2871864009 -3.8584594899 -2.3536918581 1.2700404026 -3.8422133105 -2.6027259385 1.2509731012 -3.853097466 
-2.8484396668 1.2518422052 -3.8991844311 -3.0916583036 1.2465957369 -3.9567793032 -3.3338077351 1.2274596438 -4.0159186538 
-3.5641759617 1.2403219499 -4.1121737381 -3.7912733809 1.2235452575 -4.2153498243 -4.0204382622 1.2355273717 -4.3145460244 
-4.2478450942 1.2493184055 -4.4174826076 -4.4834828557 1.2739945955 -4.4972693924 -4.7217834282 1.3027450896 -4.567171082 
-4.9607669071 1.3311838138 -4.6348330046 -5.199558466 1.3700473821 -4.6978267701 -5.4302756926 1.4046385181 -4.7876767264 
-5.6506628044 1.4263130494 -4.9036928272 -5.8669179291 1.4821841882 -5.0156676629 -1.5694943891 1.9404801104 -4.6341551474 
-1.4895185985 2.1771164887 -4.6238063594 -1.381831314 2.3982210442 -4.5789039731 -1.2633369749 2.613011121 -4.5306928281 
-1.1462127147 2.8284302862 -4.4819435621 -1.0110186488 3.0229077887 -4.4019369025 -0.87475765502 3.2163027526 -4.3211202613 
-0.70885179817 3.3900448113 -4.2519180669 -0.54644443097 3.5633239055 -4.1738270778 -0.35505468441 3.7110359584 -4.1101787129 
-0.1483501848 3.8487343787 -4.0816761715 0.067808343634 3.9732436541 -4.0651555501 0.28749992486 4.0913120878 -4.0479667714 
0.50374755256 4.2143802933 -4.0236525716 0.73000447932 4.3146703998 -3.988301509 0.94938943915 4.4138568734 -3.9209792775 
1.1649049221 4.5245782177 -3.8593849555 1.3613181123 4.6701551205 -3.8071429788 1.5518888171 4.8233410947 -3.7550194358 
1.7445140987 4.9527028979 -3.6619548088 1.9520510821 5.0706612644 -3.5883375689 -1.9325266326 2.5204028889 -5.3477890193 
-2.0959306286 2.7087500879 -5.365801979 -2.2633102792 2.8933902522 -5.385602541 -2.4178782198 3.0885612485 -5.4083409222 
-2.5479432722 3.3001525355 -5.43684021 -2.6787178666 3.5102060499 -5.4725547247 -2.8107433098 3.7194501556 -5.5084181681 
-2.9413858908 3.9308341965 -5.5357915725 -3.0679742596 4.1429310387 -5.574396163 -3.2382620752 4.3194711085 -5.6227248669 
-3.4034421657 4.4981947511 -5.679938478 -3.5627383883 4.6713598955 -5.7644283958 -3.7260812147 4.8202216789 -5.8813013633 
-3.8851823596 4.9781299918 -5.9919891692 -4.0318882388 5.1192579924 -6.1371107474 -4.1776034972 5.267674107 -6.2758180666 
-4.3006385034 5.4063912843 -6.4435080543 -4.3993083167 5.5617470301 -6.612708705 -4.4888422999 5.7516090069 -6.7484882896 
-4.5691850661 5.9608949852 -6.8591427934 -4.6250139927 6.1476728782 -7.0152628647 -2.0326142165 2.9638917436 -6.2331597129 
-1.8379661322 2.9856981232 -6.3885193121 -1.6391598511 3.01010672 -6.5381197233 -1.4501474801 3.0433683747 -6.6983320385 
-1.259729815 3.1333976635 -6.8330014113 -1.0836211307 3.1947706356 -6.9994919203 -0.90834424086 3.2595978692 -7.1655504693 
-0.7571583047 3.3005064676 -7.3604075946 -0.60996519126 3.3440873206 -7.5577268704 -0.49002972453 3.3894289805 -7.7723419158 
-0.36913794691 3.4240836293 -7.988407261 -0.25986560906 3.4360709529 -8.212942025 -0.15574965957 3.4430170546 -8.4401239362 
-0.037148734201 3.3980559853 -8.65555913 0.11474077309 3.3523152081 -8.8487879034 0.25761539666 3.307527632 -9.0489900887 
0.37134473956 3.3170620605 -9.2714192487 0.45184428968 3.4066055838 -9.4905123337 0.52755006512 3.4859579188 -9.7151717258 
0.61963079677 3.5558990082 -9.9368232155 0.71155600796 3.6256716727 -10.158220968 -1.9618163346 3.4463146723 -7.10083102 
-2.0309726592 3.3358535308 -7.3141751996 -2.104616748 3.2322445112 -7.5294464686 -2.190188981 3.1546980797 -7.751175907 
-2.2976904794 3.0825969981 -7.9650563921 -2.3991063146 3.0081621014 -8.1810986901 -2.5152911443 2.932724715 -8.3892099249 
-2.6353777226 2.9151416721 -8.607773532 -2.7375207027 2.9036163259 -8.8356638083 -2.8064497636 2.8770738805 -9.0745032588 
-2.8451554793 2.8922226211 -9.3210238122 -2.8645235536 2.9469414014 -9.5641919285 -2.8916055665 2.9711691852 -9.8115369892 
-2.9352780296 2.950425028 -10.056817229 -2.9962578971 2.9862888521 -10.296598883 -3.0614373976 3.0026472426 -10.537397629 
-3.1480640416 3.0173237865 -10.77144981 -3.2331271899 3.0370317538 -11.005705774 -3.288509663 3.025893663 -11.249239601 
-3.320897827 3.0297427036 -11.497102853 -3.3208786737 3.0038642036 -11.745309351 -2.0235998482 3.9580476516 -7.9547512915 
-1.8641792939 4.1284428016 -8.0444763141 -1.703088157 4.2983186837 -8.1321793946 -1.5312487767 4.4435719007 -8.2411414537 
-1.3581433132 4.5892239683 -8.3475368188 -1.1862146091 4.7158958043 -8.4775166889 -1.0186464144 4.8089534404 -8.6380195752 
-0.86800983641 4.8930373924 -8.8189574385 -0.72884017182 4.9763139347 -9.0092120626 -0.59088419752 5.0655988889 -9.1976168027 
-0.45467165021 5.1541236562 -9.3876418208 -0.32760832179 5.2513809607 -9.5797249468 -0.20178605879 5.3528466093 -9.770443274 
-0.086646172337 5.4573309696 -9.9662131005 0.03316044533 5.5673355231 -10.15606929 0.1539268129 5.6761187869 -10.346021089 
0.26904779452 5.7614038547 -10.550895726 0.38126424888 5.8387279751 -10.76048687 0.52095386486 5.9122322598 -10.954352626 
0.65941290954 5.9812120167 -11.150747346 0.83217367741 6.082715558 -11.299200735 -2.0611579752 4.4358891617 -8.8240748816 
-2.2749039929 4.4474172946 -8.9532249573 -2.4981042812 4.4241463158 -9.0634070468 -2.7250734602 4.4038012478 -9.1662227557 
-2.9418091811 4.3703748547 -9.2862573487 -3.1667417949 4.3351481088 -9.3895259095 -3.3871943636 4.2952164277 -9.5004588882 
-3.6033343095 4.2456788972 -9.6159125883 -3.8152564157 4.1965541869 -9.7391026194 -4.0309626123 4.1245192607 -9.8429380958 
-4.2473437712 4.0832631956 -9.9611630135 -4.4655861722 4.0789046166 -10.083028748 -4.6819146229 4.0739012266 -10.208236445 
-4.9124821926 4.0776730423 -10.304799219 -5.1348570088 4.0688567566 -10.418692652 -5.3596202142 4.1049321565 -10.522037062 
[...]
CELL_DATA 451
SCALARS solution%20variable double
LOOKUP_TABLE default
7633.6623312 7391.28053 7142.102819 6883.9675859 6677.2418182 6462.8625514 6241.1808109 6011.3871227 5828.4175586 
5638.5834035 5442.1900138 5238.4980406 5077.1505325 4909.6805677 4736.3532035 4556.498351 4414.6802177 4267.4289629 
4114.9743385 3956.7132055 3832.4085932 3703.3036451 3569.5973512 3430.7500392 3322.0484405 3209.1211324 3092.1404127 
2970.6257204 2875.7420538 2777.1493427 2674.9967908 2568.8580118 2486.1439701 2400.1811377 2311.0987733 2218.5193876 
2146.4666918 2071.5714501 1993.9457077 1913.2554219 1850.4914885 1785.2399454 1717.5979637 1647.2693992 1592.5462319 
1535.6414849 1476.6394162 1415.2760867 1367.4517077 1317.7041789 1266.1064001 1212.4205587 1170.4307334 1126.7275175 
1081.373472 1034.1498513 996.96300116 958.21757556 917.96321213 875.98746255 842.51598507 807.55576126 771.14204688 
733.05342742 702.3725736 670.18900411 636.51616158 601.09812664 575.12268031 547.85257592 519.29501295 489.21848796 
457.3164303 423.16806626 386.16834418 31.74940511 6752.0303269 6617.0552937 6479.2999979 6338.5827364 6194.7012059 
6047.4290773 5896.5118012 5741.6614217 5582.550097 5418.8019084 5249.9823706 5075.5848026 4895.0123271 4707.5536535 
4512.349797 4308.3472119 4094.2298693 3868.3174207 3628.4061214 670.29301149 5891.2997787 5768.32863 5642.7106499 
5514.2644933 5382.787221 5248.0505199 5109.7960266 4967.729481 4821.5133305 4670.7572526 4515.0058294 4353.7222543 
4186.266387 4011.8645593 3829.5669918 3638.185976 3436.2030006 3221.6233163 2991.7362435 597.29392766 5129.9652496 
5018.7288421 4905.0046745 4788.6150249 4669.3600706 4547.0138391 4421.3191516 4291.9812347 4158.6595469 4020.9571668 
3878.4067914 3730.4519197 3576.4210275 3415.4912506 3246.6358466 3068.5455846 2879.5062585 2677.1980711 2458.3456775 
529.77097105 4459.0575722 4359.1123162 4256.8574454 4152.1218247 4044.7122185 3934.409076 3820.9612252 3704.0791044 
3583.4260109 3458.606603 3329.151524 3194.496419 3053.9526211 2906.6650691 2751.5499197 2587.1984192 2411.7216233 
2222.4842784 2015.6124334 467.83160468 3869.7624552 3780.5175828 3689.1531682 3595.5071185 3499.3957165 3400.6093545 
3298.9071195 3194.0098308 3085.5909494 2973.2645078 2856.5687699 2734.9436178 2607.6984424 2473.9651554 2332.6269151 
2182.2051967 2020.6709169 1845.1059479 1651.0382517 411.4652491 3353.5833139 3274.3366686 3193.165549 3109.918732 
3024.424256 2936.4852079 2845.8743416 2752.3271062 2655.5324671 2555.1206023 2450.6460653 2341.5641902 2227.1970928 
2106.6830448 1978.8980503 1842.3283275 1694.8499207 1533.3163718 1352.6993262 360.54575217 2902.4713417 2832.4487308 
2760.6956371 2687.0728849 2611.421763 2533.5599581 2453.27633 2370.3240992 2284.4118132 2195.191137 2102.2399862 
2005.0386276 1902.9347932 1795.0909212 1680.4008698 1557.3512629 1423.7744932 1276.3674901 1109.6293127 314.84723094 
2508.9149234 2447.3077788 2384.1582309 2319.3397301 2252.7076149 2184.0952631 2113.3091237 2040.1222035 1964.2653762 
1885.4155528 1803.1792052 1717.0687976 1626.4679915 1530.5783057 1428.3334956 1318.2539861 1198.1803582 1064.7343198 
912.06184819 274.06160571 2165.9880637 2111.9858041 2056.6198247 1999.7762813 1941.324769 1881.1147427 1818.9708787 
1754.6869635 1688.0176977 1618.6674733 1546.2746325 1470.3887668 1390.4368765 1305.6708816 1215.0821359 1117.2533807 
1010.0810133 890.1940432 751.51940086 237.81024969 1867.3630981 1820.1797858 1771.799908 1722.1220308 1671.0297623 
1618.3884752 1564.0410423 1507.8021989 1449.4509473 1388.7201035 1325.2815503 1258.7248215 1188.5249154 1113.9918664 
1034.1875887 947.77954538 852.75650055 745.8219889 620.83663636 205.66667081 1607.2882883 1566.1820606 1524.0339275 
1480.7543215 1436.2403147 1390.3726568 1343.0119118 1293.9933321 1243.1199298 1190.1528986 1134.7980367 1076.6859156 
1015.3418687 950.1385739 880.2134922 804.32855902 720.59423107 625.85627669 514.05064172 177.15314842 1380.5373564 
1344.8254873 1308.2139728 1270.6244459 1231.9667351 1192.1362217 1151.010387 1108.444218 1064.2639789 1018.2585719 
970.16724216 919.65950673 866.30773137 809.54403677 748.58599762 682.30246684 608.94727182 525.55526668 426.25873815 
151.71464223 1182.3252683 1151.3960629 1119.6981158 1087.1635959 1053.7143673 1019.2596658 983.69305754 946.88730832 
908.68836029 868.90866174 827.31600433 783.61706601 737.43222336 688.25520137 635.38464393 577.79923719 513.90627261 
440.95923067 353.37619425 128.58910985 1008.1822606 981.50947497 954.18843761 926.15938697 897.35341023 867.6903632 
837.07613978 805.39902387 772.52471577 738.28939236 702.48975792 664.86831811 625.09073328 582.7093235 537.10071107 
487.35089776 432.02070263 368.59133783 291.8077965 106.32025632 853.71678637 830.85070848 807.43888638 783.43008735 
758.76514587 733.37514596 707.17903072 680.08040168 651.96314443 622.6853072 592.07029519 559.89378402 525.86349525 
489.58640562 450.5122826 407.82855169 360.24264167 305.45639621 238.53622923 80.213604443 713.3046654 693.00582967 
672.20164391 650.84129528 628.86552198 606.20453294 582.77521979 558.47734237 533.18818424 506.75485301 478.98281695 
449.6181501 418.31866652 384.60403983 347.76249581 306.6563761 259.24794726 201.10301424 76.628826653 576.62889467 
551.00715678 524.25002524 496.16901392 466.51957568 434.97465598 401.07965091 364.16974729 323.20219266 276.36327262 
219.9112544 49.914793162 7718.7756465 7802.8687785 7886.1281388 7968.5805203 8050.2513633 8131.1648492 8211.3439862 
8290.8106873 8369.5858417 8447.6893808 8525.1403384 8601.9569062 8678.1564852 8753.7557328 8828.7706064 8900.977826 
8972.7637902 9044.0429424 9114.8276613 9185.129859 9254.9610053 9324.3321508 9393.2539473 9449.1182447 9504.7719654 
9560.1647444 9615.3014504 9670.1868187 9724.8254561 9779.2218455 9833.3803509 9865.1616818 9896.9211242 9928.6421319 
9960.3252698 9991.9710952 10023.580157 10055.152997 10086.690149 10086.689395 8963.4183371 10174.990147 11197.09641 
12009.836691 
