# vtk DataFile Version 5.1
vtk output
ASCII
DATASET UNSTRUCTURED_GRID
POINTS 474 double
0 0 -3 -0.11344901018 0.17758382911 -3.1345113591 -0.25315847539 0.33878440002 -3.2648786912 
-0.38126193464 0.50363826191 -3.4024021726 -0.5126230829 0.66576812132 -3.5400907975 -0.65843420624 0.83063257984 -3.6586607204 
-0.82297351213 0.96639713451 -3.7890248355 -0.97532665543 1.1205572503 -3.9136168835 -1.1248934303 1.2712178784 -4.0456439831 
-1.260480867 1.4416481412 -4.1684021702 -1.3678821889 1.6074581306 -4.3216079256 -1.4660695894 1.784059061 -4.4688198332 
-1.5694943891 1.9404801104 -4.6341551474 -1.6843141616 2.0801145574 -4.8068358964 -1.7920938126 2.214324268 -4.9881403376 
-1.8953148049 2.3800598251 -5.1442721788 -1.9325266326 2.5204028889 -5.3477890193 -1.973129178 2.6634701459 -5.548744719 
-1.9865147688 2.7616205381 -5.7782819197 -2.0072616269 2.8605132642 -6.0069515429 -2.0326142165 2.9638917436 -6.2331597129 
-1.9920842053 3.0592208557 -6.4606892244 -1.9658829099 3.1812169213 -6.6773235986 -1.95489032 3.3115244098 -6.8903942944 
-1.9618163346 3.4463146723 -7.10083102 -1.9595558315 3.5807523934 -7.3115948434 -1.9591600912 3.7034011527 -7.5294414069 
-1.9922335507 3.8261433401 -7.744709848 -2.0235998482 3.9580476516 -7.9547512915 -2.053410198 4.0821397433 -8.16972221 
-2.0922570198 4.2101350542 -8.380928566 -2.0673262565 4.3390293584 -8.5936836256 -2.0611579752 4.4358891617 -8.8240748816 
-2.0457609566 4.5389463916 -9.0513239502 -2.0376118219 4.6474567449 -9.2763997037 -2.0620327306 4.7344755807 -9.5094905474 
-2.0678249667 4.7919692102 -9.7527207523 -2.0538188065 4.7894724803 -10.002315612 -2.061454029 4.7954964511 -10.25212637 
-2.0748719743 4.7792135014 -10.501234428 -2.0879807121 4.7450832286 -10.748546549 -2.1011430636 4.7103243177 -10.995768253 
-2.1002295418 4.7008537725 -11.245587136 -2.1048346881 4.6894878057 -11.495286169 -2.0641472069 4.6880886783 -11.741949039 
-2.0210511199 4.6768675797 -11.987950694 -1.9835084387 4.6483785121 -12.233468351 -1.9506827239 4.6230643942 -12.480007736 
-1.9004712217 4.6381689642 -12.724447211 -1.8375331244 4.6537107888 -12.96589544 -1.7745908329 4.6759472614 -13.206818265 
-1.7324654219 4.637703043 -13.450257845 -1.6671038275 4.5609504363 -13.679030438 -1.598399743 4.4811403079 -13.905768376 
-1.5362405788 4.3949975328 -14.132077148 -1.4802902991 4.3079524624 -14.359657292 -1.4132617365 4.2082396067 -14.578893508 
-1.3346237404 4.1025622853 -14.791374964 -1.2639046148 4.0215870271 -15.017077895 -1.1811068059 3.9440623254 -15.239865784 
-1.0986307142 3.8389919159 -15.45118995 -0.9637992344 3.7108445705 -15.618219079 -0.83607035007 3.5887696699 -15.795089231 
-0.67316557472 3.4694079904 -15.942448736 -0.49469270494 3.3540019539 -16.074087946 -0.32610371771 3.2396122859 -16.218976721 
-0.14820477506 3.1356714575 -16.360568636 0.012364935668 3.0233302117 -16.515800116 0.1549159304 2.9000749565 -16.680078405 
0.27000396814 2.7652117596 -16.856335778 0.3829086188 2.6314831379 -17.034855232 0.49747072388 2.4976228367 -17.212216287 
0.60083379182 2.4004242314 -17.418052405 0.66797056282 2.2936634265 -17.633910656 0.75017747883 2.1834571348 -17.842708636 
0.82913521304 2.0737203209 -18.053002496 0.84139766799 2.0604437881 -18.08156333 -0.5126230829 0.66576812132 -3.5400907975 
-0.52277406038 0.77956108233 -3.7624601292 -0.53449030145 0.89788545023 -3.982373916 -0.53515452505 1.0082199251 -4.2067081811 
-0.53644590475 1.1144897642 -4.4329935178 -0.53696454607 1.2507070137 -4.6426231721 -0.51878168185 1.3625180934 -4.8654856093 
-0.50273855675 1.4613674127 -5.0945520412 -0.49082816941 1.5488159746 -5.328455636 -0.53649707025 1.6336061495 -5.5591610277 
-0.58531137867 1.7180366746 -5.7893536638 -0.67092791921 1.7968155302 -6.0106310912 -0.74962718774 1.8695191762 -6.2365085027 
-0.83361798078 1.9305568324 -6.4639287111 -0.91700232593 1.9931029055 -6.6911621587 -0.9753928223 2.0369035191 -6.930268947 
-1.0475750197 2.0677300162 -7.1676282894 -1.1009443958 2.0963864931 -7.4101783173 -1.0913733021 2.1254249614 -7.6583015962 
-1.0949643175 2.1422303757 -7.9077102622 -1.0664266342 2.165504346 -8.1548653099 -1.1248934303 1.2712178784 -4.0456439831 
-1.3701105494 1.2938911888 -4.0025802454 -1.6157087444 1.3095406912 -3.9585732041 -1.8617989566 1.2971902892 -3.9162993943 
-2.1048102068 1.2871864009 -3.8584594899 -2.3536918581 1.2700404026 -3.8422133105 -2.6027259385 1.2509731012 -3.853097466 
-2.8484396668 1.2518422052 -3.8991844311 -3.0916583036 1.2465957369 -3.9567793032 -3.3338077351 1.2274596438 -4.0159186538 
-3.5641759617 1.2403219499 -4.1121737381 -3.7912733809 1.2235452575 -4.2153498243 -4.0204382622 1.2355273717 -4.3145460244 
-4.2478450942 1.2493184055 -4.4174826076 -4.4834828557 1.2739945955 -4.4972693924 -4.7217834282 1.3027450896 -4.567171082 
-4.9607669071 1.3311838138 -4.6348330046 -5.199558466 1.3700473821 -4.6978267701 -5.4302756926 1.4046385181 -4.7876767264 
-5.6506628044 1.4263130494 -4.9036928272 -5.8669179291 1.4821841882 -5.0156676629 -1.5694943891 1.9404801104 -4.6341551474 
-1.4895185985 2.1771164887 -4.6238063594 -1.381831314 2.3982210442 -4.5789039731 -1.2633369749 2.613011121 -4.5306928281 
-1.1462127147 2.8284302862 -4.4819435621 -1.0110186488 3.0229077887 -4.4019369025 -0.87475765502 3.2163027526 -4.3211202613 
-0.70885179817 3.3900448113 -4.2519180669 -0.54644443097 3.5633239055 -4.1738270778 -0.35505468441 3.7110359584 -4.1101787129 
-0.1483501848 3.8487343787 -4.0816761715 0.067808343634 3.9732436541 -4.0651555501 0.28749992486 4.0913120878 -4.0479667714 
0.50374755256 4.2143802933 -4.0236525716 0.73000447932 4.3146703998 -3.988301509 0.94938943915 4.4138568734 -3.9209792775 
1.1649049221 4.5245782177 -3.8593849555 1.3613181123 4.6701551205 -3.8071429788 1.5518888171 4.8233410947 -3.7550194358 
1.7445140987 4.9527028979 -3.6619548088 1.9520510821 5.0706612644 -3.5883375689 -1.9325266326 2.5204028889 -5.3477890193 
-2.0959306286 2.7087500879 -5.365801979 -2.2633102792 2.8933902522 -5.385602541 -2.4178782198 3.0885612485 -5.4083409222 
-2.5479432722 3.3001525355 -5.43684021 -2.6787178666 3.5102060499 -5.4725547247 -2.8107433098 3.7194501556 -5.5084181681 
-2.9413858908 3.9308341965 -5.5357915725 -3.0679742596 4.1429310387 -5.574396163 -3.2382620752 4.3194711085 -5.6227248669 
-3.4034421657 4.4981947511 -5.679938478 -3.5627383883 4.6713598955 -5.7644283958 -3.7260812147 4.8202216789 -5.8813013633 
-3.8851823596 4.9781299918 -5.9919891692 -4.0318882388 5.1192579924 -6.1371107474 -4.1776034972 5.267674107 -6.2758180666 
-4.3006385034 5.4063912843 -6.4435080543 -4.3993083167 5.5617470301 -6.612708705 -4.4888422999 5.7516090069 -6.7484882896 
-4.5691850661 5.9608949852 -6.8591427934 -4.6250139927 6.1476728782 -7.0152628647 -2.0326142165 2.9638917436 -6.2331597129 
-1.8379661322 2.9856981232 -6.3885193121 -1.6391598511 3.01010672 -6.5381197233 -1.4501474801 3.0433683747 -6.6983320385 
-1.259729815 3.1333976635 -6.8330014113 -1.0836211307 3.1947706356 -6.9994919203 -0.90834424086 3.2595978692 -7.1655504693 
-0.7571583047 3.3005064676 -7.3604075946 -0.60996519126 3.3440873206 -7.5577268704 -0.49002972453 3.3894289805 -7.7723419158 
-0.36913794691 3.4240836293 -7.988407261 -0.25986560906 3.4360709529 -8.212942025 -0.15574965957 3.4430170546 -8.4401239362 
-0.037148734201 3.3980559853 -8.65555913 0.11474077309 3.3523152081 -8.8487879034 0.25761539666 3.307527632 -9.0489900887 
0.37134473956 3.3170620605 -9.2714192487 0.45184428968 3.4066055838 -9.4905123337 0.52755006512 3.4859579188 -9.7151717258 
0.61963079677 3.5558990082 -9.9368232155 0.71155600796 3.6256716727 -10.158220968 -1.9618163346 3.4463146723 -7.10083102 
-2.0309726592 3.3358535308 -7.3141751996 -2.104616748 3.2322445112 -7.5294464686 -2.190188981 3.1546980797 -7.751175907 
-2.2976904794 3.0825969981 -7.9650563921 -2.3991063146 3.0081621014 -8.1810986901 -2.5152911443 2.932724715 -8.3892099249 
-2.6353777226 2.9151416721 -8.607773532 -2.7375207027 2.9036163259 -8.8356638083 -2.8064497636 2.8770738805 -9.0745032588 
-2.8451554793 2.8922226211 -9.3210238122 -2.8645235536 2.9469414014 -9.5641919285 -2.8916055665 2.9711691852 -9.8115369892 
-2.9352780296 2.950425028 -10.056817229 -2.9962578971 2.9862888521 -10.296598883 -3.0614373976 3.0026472426 -10.537397629 
-3.1480640416 3.0173237865 -10.77144981 -3.2331271899 3.0370317538 -11.005705774 -3.288509663 3.025893663 -11.249239601 
-3.320897827 3.0297427036 -11.497102853 -3.3208786737 3.0038642036 -11.745309351 -2.0235998482 3.9580476516 -7.9547512915 
-1.8641792939 4.1284428016 -8.0444763141 -1.703088157 4.2983186837 -8.1321793946 -1.5312487767 4.4435719007 -8.2411414537 
-1.3581433132 4.5892239683 -8.3475368188 -1.1862146091 4.7158958043 -8.4775166889 -1.0186464144 4.8089534404 -8.6380195752 
-0.86800983641 4.8930373924 -8.8189574385 -0.72884017182 4.9763139347 -9.0092120626 -0.59088419752 5.0655988889 -9.1976168027 
-0.45467165021 5.1541236562 -9.3876418208 -0.32760832179 5.2513809607 -9.5797249468 -0.20178605879 5.3528466093 -9.770443274 
-0.086646172337 5.4573309696 -9.9662131005 0.03316044533 5.5673355231 -10.15606929 0.1539268129 5.6761187869 -10.346021089 
0.26904779452 5.7614038547 -10.550895726 0.38126424888 5.8387279751 -10.76048687 0.52095386486 5.9122322598 -10.954352626 
0.65941290954 5.9812120167 -11.150747346 0.83217367741 6.082715558 -11.299200735 -2.0611579752 4.4358891617 -8.8240748816 
-2.2749039929 4.4474172946 -8.9532249573 -2.4981042812 4.4241463158 -9.0634070468 -2.7250734602 4.4038012478 -9.1662227557 
-2.9418091811 4.3703748547 -9.2862573487 -3.1667417949 4.3351481088 -9.3895259095 -3.3871943636 4.2952164277 -9.5004588882 
-3.6033343095 4.2456788972 -9.6159125883 -3.8152564157 4.1965541869 -9.7391026194 -4.0309626123 4.1245192607 -9.8429380958 
-4.2473437712 4.0832631956 -9.9611630135 -4.4655861722 4.0789046166 -10.083028748 -4.6819146229 4.0739012266 -10.208236445 
-4.9124821926 4.0776730423 -10.304799219 -5.1348570088 4.0688567566 -10.418692652 -5.3596202142 4.1049321565 -10.522037062 
[...]
CELL_DATA 451
SCALARS solution%20variable double
LOOKUP_TABLE default
7634.0310712 7391.6435206 7142.4599149 6884.3186547 6677.5878691 6463.2034464 6241.5164175 6011.7173217 5828.7434242 
5638.904819 5442.5068656 5238.8102322 5077.4591903 4909.9856036 4736.6545324 4556.7959099 4414.9751742 4267.7212707 
4115.2639515 3957.0001077 3832.693986 3703.5875368 3569.8797478 3431.0309867 3322.3291694 3209.4017202 3092.4209317 
2970.9062964 2876.0239424 2777.4327075 2675.2817863 2569.1448631 2486.4339512 2400.474516 2311.3958018 2218.820411 
2146.7729831 2071.8833976 1994.2636763 1913.5798933 1850.8236879 1785.5803911 1717.9471386 1647.6279306 1592.9151927 
1536.0215173 1477.031109 1415.6802022 1367.8689673 1318.135312 1266.5520574 1212.8815909 1170.9071626 1127.2200721 
1081.8827672 1034.6767203 997.50619777 958.77769386 918.54069512 876.58298269 843.1260396 808.18050451 771.78143611 
733.70763112 703.03590571 670.86078728 637.19546982 601.78418372 575.81526823 548.55002367 519.99527341 489.91948979 
458.01616358 423.86475106 386.86078314 31.780948208 6752.378828 6617.4011006 6479.6429771 6338.9227531 6195.0381246 
6047.7627619 5896.8421158 5741.9882316 5582.8732699 5419.1213158 5250.2978905 5075.8963227 4895.3197496 4707.8569015 
4512.6488251 4308.6420207 4094.5205289 3868.6041083 3628.6891839 670.32392317 5891.6272845 5768.6532951 5643.0323201 
5514.5830113 5383.1024271 5248.3622524 5110.104122 4968.0337746 4821.8136578 4671.0534504 4515.297738 4354.0097206 
4186.5492693 4012.1427342 3829.8403651 3638.4544999 3436.4667018 3221.8823439 2991.9909553 597.32461243 5130.2746673 
5019.0353163 4905.3080285 4788.9150775 4669.6566364 4547.3067287 4421.6081713 4292.2661874 4158.9402323 4021.2333827 
3878.6783352 3730.7185913 3576.6826331 3415.7476096 3246.8868027 3068.7910239 2879.7461418 2677.4324923 2458.5749774 
529.80148431 4459.3523216 4359.4040624 4257.1459875 4152.406956 4044.9937258 3934.68674 3821.2348196 3704.3483967 
3583.690762 3458.8665677 3329.4064521 3194.746057 3054.1967156 2906.9033721 2751.7821993 2587.4244773 2411.94133 
2222.6976395 2015.8197342 467.86208776 3870.0465509 3780.7986547 3689.430989 3595.7814529 3499.6663211 3400.8759768 
3299.1694978 3194.2676934 3085.8440143 2973.5124824 2856.8113511 2735.1804925 2607.9292895 2474.1896495 2332.8447348 
2182.4160409 2020.8745387 1845.3022272 1651.2273687 411.49595707 3353.861495 3274.611839 3193.4374506 3110.1870969 
3024.6888057 2936.7456521 2846.130378 2752.5784186 2655.7787249 2555.3614591 2450.881158 2341.7931382 2227.4194977 
2106.898492 1979.1061142 1842.5285834 1695.0419754 1533.4999367 1352.8744143 360.57708651 2902.7492291 2832.7236502 
2760.967293 2687.3409695 2611.6859552 2533.8199223 2453.5317146 2370.5745352 2284.656912 2195.4304886 2102.4731566 
2005.2651567 1903.1541919 1795.3026702 1680.6044195 1557.5460405 1423.9599243 1276.5430666 1109.7948022 314.87977016 
2509.1992093 2447.5891747 2384.4363929 2319.6142995 2252.9782163 2184.361503 2113.5705886 2040.3784575 1964.5159582 
1885.6599735 1803.4169432 1717.2992949 1626.6906482 1530.7924744 1428.5384761 1318.4490236 1198.3646532 1064.90708 
912.22249618 274.09616251 2166.2867139 2112.2816985 2056.9125554 2000.0654215 1941.609871 1881.3953364 1819.2464685 
1754.9570254 1688.2816758 1618.924775 1546.5246229 1470.6307618 1390.6701342 1305.8945918 1215.2954074 1117.4552283 
1010.2703503 890.36970655 751.68034927 237.84792067 1867.6855111 1820.4996809 1772.1167895 1722.4353787 1671.3390306 
1618.6930887 1564.3403936 1508.0956442 1449.7378015 1388.9996342 1325.5529697 1258.9872765 1188.7774747 1114.2335038 
1034.4171606 947.99576323 852.95791478 746.00696351 621.00347695 205.70888375 1607.6453025 1566.5369932 1524.3861616 
1481.1032089 1436.5851727 1390.7127652 1343.3465079 1294.3216063 1243.4410184 1190.4658758 1135.1019037 1076.9795872 
1015.6241542 950.40815233 880.46889784 804.56811862 720.81600092 626.05797104 514.22966 177.20173268 1380.9408871 
1345.2277253 1308.6141344 1271.0217051 1232.3602197 1192.525009 1151.3934978 1108.8206101 1064.6325382 1018.6181014 
970.5164475 919.99700134 866.63199096 809.85336492 748.8784767 682.57588621 609.19902074 525.78217988 426.4569602 
151.77179116 1182.7872918 1151.8581772 1120.1593097 1087.6227991 1054.1704454 1019.7114145 984.13919512 947.32649635 
909.11916652 869.32954611 827.72530062 784.01295733 737.81270853 688.61804745 635.72731688 578.11879681 514.19920644 
441.22118526 353.60159664 128.65717839 1008.7127089 982.04235202 954.72246386 926.69320211 897.88556722 868.21932096 
837.60025431 805.9165371 773.03374152 738.78789813 702.97554096 665.33897312 625.54360767 583.14145344 537.50872647 
487.73087482 432.36792212 368.89986795 292.0697919 106.4007574 854.32037382 831.46097979 808.05421545 784.04873127 
759.38523704 733.99468271 707.79586587 680.69222842 652.56747843 623.27946361 592.65135832 560.45856638 526.40848071 
490.10766777 451.00536301 408.28826974 360.66278138 305.82916477 238.85138372 80.301687818 713.97051852 693.68155224 
672.88510831 651.53019954 629.55737742 606.89664927 583.46468675 559.16100665 533.86261967 507.41632109 479.62721318 
450.24092843 418.91472903 385.16756799 348.28667731 307.13292831 259.6662002 201.44791632 76.745129979 577.31214828 
551.68474156 524.91867303 496.8251718 467.15936275 435.59380623 401.67343747 364.73288552 323.7287367 276.84662538 
220.3451559 49.985567155 7719.1464028 7803.2414006 7886.5024795 7968.9564355 8050.628712 8131.5434936 8211.7237911 
8291.1915204 8369.9675734 8448.0718842 8525.523489 8602.340582 8678.5405666 8754.1401025 8829.1551495 8901.3625046 
8973.1484861 9044.4275447 9115.2120609 9185.5139489 9255.3446807 9324.7153086 9393.6364865 9449.5005578 9505.1539388 
9560.546268 9615.6824162 9670.5671202 9725.2049887 9779.6005064 9833.7580391 9865.5391268 9897.2982092 9929.0187422 
9960.7012924 9992.3464181 10023.95467 10055.52659 10087.062713 10087.061965 8963.7983922 10175.342701 11197.424606 
12010.142571 
