# vtk DataFile Version 5.1
vtk output
ASCII
DATASET UNSTRUCTURED_GRID
POINTS 474 double
0 0 -3 -0.11344901018 0.17758382911 -3.1345113591 -0.25315847539 0.33878440002 -3.2648786912 
-0.38126193464 0.50363826191 -3.4024021726 -0.5126230829 0.66576812132 -3.5400907975 -0.65843420624 0.83063257984 -3.6586607204 
-0.82297351213 0.96639713451 -3.7890248355 -0.97532665543 1.1205572503 -3.9136168835 -1.1248934303 1.2712178784 -4.0456439831 
-1.260480867 1.4416481412 -4.1684021702 -1.3678821889 1.6074581306 -4.3216079256 -1.4660695894 1.784059061 -4.4688198332 
-1.5694943891 1.9404801104 -4.6341551474 -1.6843141616 2.0801145574 -4.8068358964 -1.7920938126 2.214324268 -4.9881403376 
-1.8953148049 2.3800598251 -5.1442721788 -1.9325266326 2.5204028889 -5.3477890193 -1.973129178 2.6634701459 -5.548744719 
-1.9865147688 2.7616205381 -5.7782819197 -2.0072616269 2.8605132642 -6.0069515429 -2.0326142165 2.9638917436 -6.2331597129 
-1.9920842053 3.0592208557 -6.4606892244 -1.9658829099 3.1812169213 -6.6773235986 -1.95489032 3.3115244098 -6.8903942944 
-1.9618163346 3.4463146723 -7.10083102 -1.9595558315 3.5807523934 -7.3115948434 -1.9591600912 3.7034011527 -7.5294414069 
-1.9922335507 3.8261433401 -7.744709848 -2.0235998482 3.9580476516 -7.9547512915 -2.053410198 4.0821397433 -8.16972221 
-2.0922570198 4.2101350542 -8.380928566 -2.0673262565 4.3390293584 -8.5936836256 -2.0611579752 4.4358891617 -8.8240748816 
-2.0457609566 4.5389463916 -9.0513239502 -2.0376118219 4.6474567449 -9.2763997037 -2.0620327306 4.7344755807 -9.5094905474 
-2.0678249667 4.7919692102 -9.7527207523 -2.0538188065 4.7894724803 -10.002315612 -2.061454029 4.7954964511 -10.25212637 
-2.0748719743 4.7792135014 -10.501234428 -2.0879807121 4.7450832286 -10.748546549 -2.1011430636 4.7103243177 -10.995768253 
-2.1002295418 4.7008537725 -11.245587136 -2.1048346881 4.6894878057 -11.495286169 -2.0641472069 4.6880886783 -11.741949039 
-2.0210511199 4.6768675797 -11.987950694 -1.9835084387 4.6483785121 -12.233468351 -1.9506827239 4.6230643942 -12.480007736 
-1.9004712217 4.6381689642 -12.724447211 -1.8375331244 4.6537107888 -12.96589544 -1.7745908329 4.6759472614 -13.206818265 
-1.7324654219 4.637703043 -13.450257845 -1.6671038275 4.5609504363 -13.679030438 -1.598399743 4.4811403079 -13.905768376 
-1.5362405788 4.3949975328 -14.132077148 -1.4802902991 4.3079524624 -14.359657292 -1.4132617365 4.2082396067 -14.578893508 
-1.3346237404 4.1025622853 -14.791374964 -1.2639046148 4.0215870271 -15.017077895 -1.1811068059 3.9440623254 -15.239865784 
-1.0986307142 3.8389919159 -15.45118995 -0.9637992344 3.7108445705 -15.618219079 -0.83607035007 3.5887696699 -15.795089231 
-0.67316557472 3.4694079904 -15.942448736 -0.49469270494 3.3540019539 -16.074087946 -0.32610371771 3.2396122859 -16.218976721 
-0.14820477506 3.1356714575 -16.360568636 0.012364935668 3.0233302117 -16.515800116 0.1549159304 2.9000749565 -16.680078405 
0.27000396814 2.7652117596 -16.856335778 0.3829086188 2.6314831379 -17.034855232 0.49747072388 2.4976228367 -17.212216287 
0.60083379182 2.4004242314 -17.418052405 0.66797056282 2.2936634265 -17.633910656 0.75017747883 2.1834571348 -17.842708636 
0.82913521304 2.0737203209 -18.053002496 0.84139766799 2.0604437881 -18.08156333 -0.5126230829 0.66576812132 -3.5400907975 
-0.52277406038 0.77956108233 -3.7624601292 -0.53449030145 0.89788545023 -3.982373916 -0.53515452505 1.0082199251 -4.2067081811 
-0.53644590475 1.1144897642 -4.4329935178 -0.53696454607 1.2507070137 -4.6426231721 -0.51878168185 1.3625180934 -4.8654856093 
-0.50273855675 1.4613674127 -5.0945520412 -0.49082816941 1.5488159746 -5.328455636 -0.53649707025 1.6336061495 -5.5591610277 
-0.58531137867 1.7180366746 -5.7893536638 -0.67092791921 1.7968155302 -6.0106310912 -0.74962718774 1.8695191762 -6.2365085027 
-0.83361798078 1.9305568324 -6.4639287111 -0.91700232593 1.9931029055 -6.6911621587 -0.9753928223 2.0369035191 -6.930268947 
-1.0475750197 2.0677300162 -7.1676282894 -1.1009443958 2.0963864931 -7.4101783173 -1.0913733021 2.1254249614 -7.6583015962 
-1.0949643175 2.1422303757 -7.9077102622 -1.0664266342 2.165504346 -8.1548653099 -1.1248934303 1.2712178784 -4.0456439831 
-1.3701105494 1.2938911888 -4.0025802454 -1.6157087444 1.3095406912 -3.9585732041 -1.8617989566 1.2971902892 -3.9162993943 
-2.1048102068 1.2871864009 -3.8584594899 -2.3536918581 1.2700404026 -3.8422133105 -2.6027259385 1.2509731012 -3.853097466 
-2.8484396668 1.2518422052 -3.8991844311 -3.0916583036 1.2465957369 -3.9567793032 -3.3338077351 1.2274596438 -4.0159186538 
-3.5641759617 1.2403219499 -4.1121737381 -3.7912733809 1.2235452575 -4.2153498243 -4.0204382622 1.2355273717 -4.3145460244 
-4.2478450942 1.2493184055 -4.4174826076 -4.4834828557 1.2739945955 -4.4972693924 -4.7217834282 1.3027450896 -4.567171082 
-4.9607669071 1.3311838138 -4.6348330046 -5.199558466 1.3700473821 -4.6978267701 -5.4302756926 1.4046385181 -4.7876767264 
-5.6506628044 1.4263130494 -4.9036928272 -5.8669179291 1.4821841882 -5.0156676629 -1.5694943891 1.9404801104 -4.6341551474 
-1.4895185985 2.1771164887 -4.6238063594 -1.381831314 2.3982210442 -4.5789039731 -1.2633369749 2.613011121 -4.5306928281 
-1.1462127147 2.8284302862 -4.4819435621 -1.0110186488 3.0229077887 -4.4019369025 -0.87475765502 3.2163027526 -4.3211202613 
-0.70885179817 3.3900448113 -4.2519180669 -0.54644443097 3.5633239055 -4.1738270778 -0.35505468441 3.7110359584 -4.1101787129 
-0.1483501848 3.8487343787 -4.0816761715 0.067808343634 3.9732436541 -4.0651555501 0.28749992486 4.0913120878 -4.0479667714 
0.50374755256 4.2143802933 -4.0236525716 0.73000447932 4.3146703998 -3.988301509 0.94938943915 4.4138568734 -3.9209792775 
1.1649049221 4.5245782177 -3.8593849555 1.3613181123 4.6701551205 -3.8071429788 1.5518888171 4.8233410947 -3.7550194358 
1.7445140987 4.9527028979 -3.6619548088 1.9520510821 5.0706612644 -3.5883375689 -1.9325266326 2.5204028889 -5.3477890193 
-2.0959306286 2.7087500879 -5.365801979 -2.2633102792 2.8933902522 -5.385602541 -2.4178782198 3.0885612485 -5.4083409222 
-2.5479432722 3.3001525355 -5.43684021 -2.6787178666 3.5102060499 -5.4725547247 -2.8107433098 3.7194501556 -5.5084181681 
-2.9413858908 3.9308341965 -5.5357915725 -3.0679742596 4.1429310387 -5.574396163 -3.2382620752 4.3194711085 -5.6227248669 
-3.4034421657 4.4981947511 -5.679938478 -3.5627383883 4.6713598955 -5.7644283958 -3.7260812147 4.8202216789 -5.8813013633 
-3.8851823596 4.9781299918 -5.9919891692 -4.0318882388 5.1192579924 -6.1371107474 -4.1776034972 5.267674107 -6.2758180666 
-4.3006385034 5.4063912843 -6.4435080543 -4.3993083167 5.5617470301 -6.612708705 -4.4888422999 5.7516090069 -6.7484882896 
-4.5691850661 5.9608949852 -6.8591427934 -4.6250139927 6.1476728782 -7.0152628647 -2.0326142165 2.9638917436 -6.2331597129 
-1.8379661322 2.9856981232 -6.3885193121 -1.6391598511 3.01010672 -6.5381197233 -1.4501474801 3.0433683747 -6.6983320385 
-1.259729815 3.1333976635 -6.8330014113 -1.0836211307 3.1947706356 -6.9994919203 -0.90834424086 3.2595978692 -7.1655504693 
-0.7571583047 3.3005064676 -7.3604075946 -0.60996519126 3.3440873206 -7.5577268704 -0.49002972453 3.3894289805 -7.7723419158 
-0.36913794691 3.4240836293 -7.988407261 -0.25986560906 3.4360709529 -8.212942025 -0.15574965957 3.4430170546 -8.4401239362 
-0.037148734201 3.3980559853 -8.65555913 0.11474077309 3.3523152081 -8.8487879034 0.25761539666 3.307527632 -9.0489900887 
0.37134473956 3.3170620605 -9.2714192487 0.45184428968 3.4066055838 -9.4905123337 0.52755006512 3.4859579188 -9.7151717258 
0.61963079677 3.5558990082 -9.9368232155 0.71155600796 3.6256716727 -10.158220968 -1.9618163346 3.4463146723 -7.10083102 
-2.0309726592 3.3358535308 -7.3141751996 -2.104616748 3.2322445112 -7.5294464686 -2.190188981 3.1546980797 -7.751175907 
-2.2976904794 3.0825969981 -7.9650563921 -2.3991063146 3.0081621014 -8.1810986901 -2.5152911443 2.932724715 -8.3892099249 
-2.6353777226 2.9151416721 -8.607773532 -2.7375207027 2.9036163259 -8.8356638083 -2.8064497636 2.8770738805 -9.0745032588 
-2.8451554793 2.8922226211 -9.3210238122 -2.8645235536 2.9469414014 -9.5641919285 -2.8916055665 2.9711691852 -9.8115369892 
-2.9352780296 2.950425028 -10.056817229 -2.9962578971 2.9862888521 -10.296598883 -3.0614373976 3.0026472426 -10.537397629 
-3.1480640416 3.0173237865 -10.77144981 -3.2331271899 3.0370317538 -11.005705774 -3.288509663 3.025893663 -11.249239601 
-3.320897827 3.0297427036 -11.497102853 -3.3208786737 3.0038642036 -11.745309351 -2.0235998482 3.9580476516 -7.9547512915 
-1.8641792939 4.1284428016 -8.0444763141 -1.703088157 4.2983186837 -8.1321793946 -1.5312487767 4.4435719007 -8.2411414537 
-1.3581433132 4.5892239683 -8.3475368188 -1.1862146091 4.7158958043 -8.4775166889 -1.0186464144 4.8089534404 -8.6380195752 
-0.86800983641 4.8930373924 -8.8189574385 -0.72884017182 4.9763139347 -9.0092120626 -0.59088419752 5.0655988889 -9.1976168027 
-0.45467165021 5.1541236562 -9.3876418208 -0.32760832179 5.2513809607 -9.5797249468 -0.20178605879 5.3528466093 -9.770443274 
-0.086646172337 5.4573309696 -9.9662131005 0.03316044533 5.5673355231 -10.15606929 0.1539268129 5.6761187869 -10.346021089 
0.26904779452 5.7614038547 -10.550895726 0.38126424888 5.8387279751 -10.76048687 0.52095386486 5.9122322598 -10.954352626 
0.65941290954 5.9812120167 -11.150747346 0.83217367741 6.082715558 -11.299200735 -2.0611579752 4.4358891617 -8.8240748816 
-2.2749039929 4.4474172946 -8.9532249573 -2.4981042812 4.4241463158 -9.0634070468 -2.7250734602 4.4038012478 -9.1662227557 
-2.9418091811 4.3703748547 -9.2862573487 -3.1667417949 4.3351481088 -9.3895259095 -3.3871943636 4.2952164277 -9.5004588882 
-3.6033343095 4.2456788972 -9.6159125883 -3.8152564157 4.1965541869 -9.7391026194 -4.0309626123 4.1245192607 -9.8429380958 
-4.2473437712 4.0832631956 -9.9611630135 -4.4655861722 4.0789046166 -10.083028748 -4.6819146229 4.0739012266 -10.208236445 
-4.9124821926 4.0776730423 -10.304799219 -5.1348570088 4.0688567566 -10.418692652 -5.3596202142 4.1049321565 -10.522037062 
[...]
CELL_DATA 451
SCALARS solution%20variable double
LOOKUP_TABLE default
7634.1555353 7391.7660437 7142.5804481 6884.4371535 6677.7046739 6463.3185105 6241.6296961 6011.8287748 5828.853414 
5639.0133057 5442.6138109 5238.9156034 5077.5633677 4910.0885574 4736.7562337 4556.8963375 4415.0747221 4267.8199232 
4115.3616929 3957.0969325 3832.7902996 3703.6833415 3569.9750456 3431.1257928 3322.4238988 3209.4963986 3092.5155832 
2971.0009632 2876.1190478 2777.5283063 2675.3779302 2569.2416277 2486.5317657 2400.5734703 2311.4959807 2218.92193 
2146.8762713 2071.9885849 1994.3708852 1913.6892853 1850.9356754 1785.6951477 1718.064826 1647.7487593 1593.0395231 
1536.1495643 1477.1630698 1415.8163323 1368.0095085 1318.2805082 1266.7021261 1213.0368169 1171.0675523 1127.3858688 
1082.054176 1034.8540195 997.68896829 958.96613336 918.73495046 876.78327757 843.3312 808.39058018 771.99641076 
733.92755916 703.25888712 671.08659353 637.42378918 602.01475465 576.0480245 548.78440467 520.23059259 490.15505276 
458.25129685 424.09885868 387.09346493 31.791541062 6752.4964602 6617.5178235 6479.7587457 6339.0375219 6195.1518478 
6047.8753935 5896.9536101 5742.098543 5582.9823537 5419.2291287 5250.4043913 5076.0014736 4895.4235174 4707.9592604 
4512.7497597 4308.7415312 4094.618639 3868.7008778 3628.7847298 670.33435694 5891.7378286 5768.7628806 5643.1408947 
5514.6905219 5383.20882 5248.467473 5110.208115 4968.1364845 4821.9150289 4671.1534277 4515.3962676 4354.1067509 
4186.6447524 4012.2366285 3829.9326388 3638.5451369 3436.5557111 3221.9697758 2992.0769305 597.33496945 5130.3791024 
5019.138758 4905.4104172 4789.016352 4669.7567342 4547.4055858 4421.7057223 4292.3623658 4159.0349705 4021.3266124 
3878.7699882 3730.8085999 3576.7709318 3415.8341376 3246.9715072 3068.8738665 2879.8271093 2677.5116163 2458.652373 
529.81178313 4459.4518007 4359.502528 4257.2433719 4152.5031894 4045.0887363 3934.7804534 3821.3271597 3704.439285 
3583.7801177 3458.9543081 3329.4924928 3194.8303124 3054.2791001 2906.9838022 2751.8605966 2587.5007749 2412.0154841 
2222.7696521 2015.8897016 467.87237594 3870.1424287 3780.8935121 3689.5247493 3595.8740368 3499.7576464 3400.9659582 
3299.258047 3194.3547187 3085.9294206 2973.5961709 2856.8932195 2735.2604352 2608.007198 2474.2654141 2332.9182471 
2182.4871993 2020.9432596 1845.3684704 1651.2911949 411.50632048 3353.9553682 3274.7046963 3193.5292049 3110.2776578 
3024.7780792 2936.8335404 2846.2167788 2752.6632254 2655.8618261 2555.4427378 2450.9604917 2341.8703984 2227.49455 
2106.9711966 1979.1763273 1842.5961618 1695.1067865 1533.561883 1352.9335004 360.58766029 2902.8429893 2832.8164091 
2761.058951 2687.4314226 2611.7750952 2533.9076359 2453.6178832 2370.6590342 2284.7396103 2195.5112479 2102.5518306 
2005.34159 1903.2282196 1795.3741169 1680.6730999 1557.6117613 1424.0224918 1276.6023093 1109.8506418 314.89074904 
2509.2951085 2447.6840993 2384.5302269 2319.7069219 2253.0695005 2184.4513162 2113.6587912 2040.4649025 1964.6004901 
1885.7424272 1803.4971429 1717.3770523 1626.7657609 1530.864724 1428.6076263 1318.5148199 1198.4268259 1064.9653619 
912.27669243 274.10781998 2166.3874326 2112.3814882 2057.0112785 2000.162934 1941.7060221 1881.4899675 1819.3394124 
1755.0481054 1688.3707043 1619.0115521 1546.6089346 1470.7123773 1390.7488033 1305.9700413 1215.3673367 1117.5233051 
1010.3342082 890.42895333 751.73463377 237.86062551 1867.7942094 1820.6075307 1772.2236235 1722.5410218 1671.4432986 
1618.7957877 1564.4413188 1508.1945786 1449.8345141 1389.093878 1325.6444791 1259.075764 1188.8626262 1114.3149733 
1034.4945627 948.06866335 853.02582431 746.06933093 621.05973112 205.72311577 1607.7656201 1566.6566095 1524.5048687 
1481.2207882 1436.7013943 1390.8273862 1343.4592715 1294.4322396 1243.5492303 1190.5713543 1135.2043123 1077.07856 
1015.71929 950.49900612 880.5549756 804.6488565 720.89074392 626.12594897 514.28999666 177.21810616 1381.0768201 
1345.3632225 1308.7489319 1271.1555248 1232.4927677 1192.6559744 1151.5225509 1108.9474 1064.7566896 1018.7392111 
970.63407956 920.11068875 866.74122034 809.9575649 748.9770014 682.66799111 609.28382656 525.85862065 426.52373764 
151.7910415 1182.94285 1152.0137644 1120.3145855 1087.7774033 1054.3239962 1019.8635065 984.28939689 947.4743574 
909.26420478 869.47124323 827.86309581 784.14623908 737.94080331 688.74020372 635.8426818 578.22638083 514.29782747 
441.30937822 353.67748627 128.68009286 1008.8912076 982.22166308 954.90215689 926.87281953 898.06462231 868.3972954 
837.7765952 806.09065322 773.20499857 738.95561264 703.13897225 665.49731242 625.69596308 583.28682844 537.64598797 
487.85870353 432.4847314 369.00366352 292.15793646 106.42783574 854.52336866 831.66620918 808.26113269 784.25675049 
759.59373056 734.20297791 708.00324135 680.89790926 652.77063018 623.47918459 592.84666941 560.64839729 526.59165088 
490.28285896 451.1710784 408.44277014 360.80398005 305.95444576 238.95730929 80.331284367 714.19433391 693.90865611 
673.11478565 651.76167702 629.78981933 607.12915249 583.69627464 559.3906213 534.08911192 507.63843731 479.84357727 
450.4500165 419.11483236 385.35673652 348.46262791 307.29288508 259.80658702 201.56368867 76.784157698 577.5417616 
551.91243535 525.14335061 497.04564112 467.37432196 435.80182452 401.87292971 364.92207982 323.90563997 277.00902714 
220.49096138 50.009334244 7719.2715476 7803.3671754 7886.6288345 7969.0833221 8050.7560826 8131.6713015 8211.8519909 
8291.3200673 8370.0964237 8448.200995 8525.6528183 8602.4700887 8678.6702103 8754.2698436 8829.2849492 8901.4923499 
8973.2783377 9044.557365 9115.341813 9185.6435968 9255.4741889 9324.8446424 9393.7656118 9449.629607 9505.2828732 
9560.6750506 9615.8110104 9670.6954902 9725.3330991 9779.7283225 9833.8855268 9865.6665323 9897.4254931 9929.145866 
9960.8282178 9992.4731073 10024.081085 10055.652695 10087.188471 10087.187724 8963.9266771 10175.461705 11197.535388 
12010.245821 
