# vtk DataFile Version 5.1
vtk output
ASCII
DATASET UNSTRUCTURED_GRID
POINTS 474 double
0 0 -3 -0.11344901018 0.17758382911 -3.1345113591 -0.25315847539 0.33878440002 -3.2648786912 
-0.38126193464 0.50363826191 -3.4024021726 -0.5126230829 0.66576812132 -3.5400907975 -0.65843420624 0.83063257984 -3.6586607204 
-0.82297351213 0.96639713451 -3.7890248355 -0.97532665543 1.1205572503 -3.9136168835 -1.1248934303 1.2712178784 -4.0456439831 
-1.260480867 1.4416481412 -4.1684021702 -1.3678821889 1.6074581306 -4.3216079256 -1.4660695894 1.784059061 -4.4688198332 
-1.5694943891 1.9404801104 -4.6341551474 -1.6843141616 2.0801145574 -4.8068358964 -1.7920938126 2.214324268 -4.9881403376 
-1.8953148049 2.3800598251 -5.1442721788 -1.9325266326 2.5204028889 -5.3477890193 -1.973129178 2.6634701459 -5.548744719 
-1.9865147688 2.7616205381 -5.7782819197 -2.0072616269 2.8605132642 -6.0069515429 -2.0326142165 2.9638917436 -6.2331597129 
-1.9920842053 3.0592208557 -6.4606892244 -1.9658829099 3.1812169213 -6.6773235986 -1.95489032 3.3115244098 -6.8903942944 
-1.9618163346 3.4463146723 -7.10083102 -1.9595558315 3.5807523934 -7.3115948434 -1.9591600912 3.7034011527 -7.5294414069 
-1.9922335507 3.8261433401 -7.744709848 -2.0235998482 3.9580476516 -7.9547512915 -2.053410198 4.0821397433 -8.16972221 
-2.0922570198 4.2101350542 -8.380928566 -2.0673262565 4.3390293584 -8.5936836256 -2.0611579752 4.4358891617 -8.8240748816 
-2.0457609566 4.5389463916 -9.0513239502 -2.0376118219 4.6474567449 -9.2763997037 -2.0620327306 4.7344755807 -9.5094905474 
-2.0678249667 4.7919692102 -9.7527207523 -2.0538188065 4.7894724803 -10.002315612 -2.061454029 4.7954964511 -10.25212637 
-2.0748719743 4.7792135014 -10.501234428 -2.0879807121 4.7450832286 -10.748546549 -2.1011430636 4.7103243177 -10.995768253 
-2.1002295418 4.7008537725 -11.245587136 -2.1048346881 4.6894878057 -11.495286169 -2.0641472069 4.6880886783 -11.741949039 
-2.0210511199 4.6768675797 -11.987950694 -1.9835084387 4.6483785121 -12.233468351 -1.9506827239 4.6230643942 -12.480007736 
-1.9004712217 4.6381689642 -12.724447211 -1.8375331244 4.6537107888 -12.96589544 -1.7745908329 4.6759472614 -13.206818265 
-1.7324654219 4.637703043 -13.450257845 -1.6671038275 4.5609504363 -13.679030438 -1.598399743 4.4811403079 -13.905768376 
-1.5362405788 4.3949975328 -14.132077148 -1.4802902991 4.3079524624 -14.359657292 -1.4132617365 4.2082396067 -14.578893508 
-1.3346237404 4.1025622853 -14.791374964 -1.2639046148 4.0215870271 -15.017077895 -1.1811068059 3.9440623254 -15.239865784 
-1.0986307142 3.8389919159 -15.45118995 -0.9637992344 3.7108445705 -15.618219079 -0.83607035007 3.5887696699 -15.795089231 
-0.67316557472 3.4694079904 -15.942448736 -0.49469270494 3.3540019539 -16.074087946 -0.32610371771 3.2396122859 -16.218976721 
-0.14820477506 3.1356714575 -16.360568636 0.012364935668 3.0233302117 -16.515800116 0.1549159304 2.9000749565 -16.680078405 
0.27000396814 2.7652117596 -16.856335778 0.3829086188 2.6314831379 -17.034855232 0.49747072388 2.4976228367 -17.212216287 
0.60083379182 2.4004242314 -17.418052405 0.66797056282 2.2936634265 -17.633910656 0.75017747883 2.1834571348 -17.842708636 
0.82913521304 2.0737203209 -18.053002496 0.84139766799 2.0604437881 -18.08156333 -0.5126230829 0.66576812132 -3.5400907975 
-0.52277406038 0.77956108233 -3.7624601292 -0.53449030145 0.89788545023 -3.982373916 -0.53515452505 1.0082199251 -4.2067081811 
-0.53644590475 1.1144897642 -4.4329935178 -0.53696454607 1.2507070137 -4.6426231721 -0.51878168185 1.3625180934 -4.8654856093 
-0.50273855675 1.4613674127 -5.0945520412 -0.49082816941 1.5488159746 -5.328455636 -0.53649707025 1.6336061495 -5.5591610277 
-0.58531137867 1.7180366746 -5.7893536638 -0.67092791921 1.7968155302 -6.0106310912 -0.74962718774 1.8695191762 -6.2365085027 
-0.83361798078 1.9305568324 -6.4639287111 -0.91700232593 1.9931029055 -6.6911621587 -0.9753928223 2.0369035191 -6.930268947 
-1.0475750197 2.0677300162 -7.1676282894 -1.1009443958 2.0963864931 -7.4101783173 -1.0913733021 2.1254249614 -7.6583015962 
-1.0949643175 2.1422303757 -7.9077102622 -1.0664266342 2.165504346 -8.1548653099 -1.1248934303 1.2712178784 -4.0456439831 
-1.3701105494 1.2938911888 -4.0025802454 -1.6157087444 1.3095406912 -3.9585732041 -1.8617989566 1.2971902892 -3.9162993943 
-2.1048102068 1.2871864009 -3.8584594899 -2.3536918581 1.2700404026 -3.8422133105 -2.6027259385 1.2509731012 -3.853097466 
-2.8484396668 1.2518422052 -3.8991844311 -3.0916583036 1.2465957369 -3.9567793032 -3.3338077351 1.2274596438 -4.0159186538 
-3.5641759617 1.2403219499 -4.1121737381 -3.7912733809 1.2235452575 -4.2153498243 -4.0204382622 1.2355273717 -4.3145460244 
-4.2478450942 1.2493184055 -4.4174826076 -4.4834828557 1.2739945955 -4.4972693924 -4.7217834282 1.3027450896 -4.567171082 
-4.9607669071 1.3311838138 -4.6348330046 -5.199558466 1.3700473821 -4.6978267701 -5.4302756926 1.4046385181 -4.7876767264 
-5.6506628044 1.4263130494 -4.9036928272 -5.8669179291 1.4821841882 -5.0156676629 -1.5694943891 1.9404801104 -4.6341551474 
-1.4895185985 2.1771164887 -4.6238063594 -1.381831314 2.3982210442 -4.5789039731 -1.2633369749 2.613011121 -4.5306928281 
-1.1462127147 2.8284302862 -4.4819435621 -1.0110186488 3.0229077887 -4.4019369025 -0.87475765502 3.2163027526 -4.3211202613 
-0.70885179817 3.3900448113 -4.2519180669 -0.54644443097 3.5633239055 -4.1738270778 -0.35505468441 3.7110359584 -4.1101787129 
-0.1483501848 3.8487343787 -4.0816761715 0.067808343634 3.9732436541 -4.0651555501 0.28749992486 4.0913120878 -4.0479667714 
0.50374755256 4.2143802933 -4.0236525716 0.73000447932 4.3146703998 -3.988301509 0.94938943915 4.4138568734 -3.9209792775 
1.1649049221 4.5245782177 -3.8593849555 1.3613181123 4.6701551205 -3.8071429788 1.5518888171 4.8233410947 -3.7550194358 
1.7445140987 4.9527028979 -3.6619548088 1.9520510821 5.0706612644 -3.5883375689 -1.9325266326 2.5204028889 -5.3477890193 
-2.0959306286 2.7087500879 -5.365801979 -2.2633102792 2.8933902522 -5.385602541 -2.4178782198 3.0885612485 -5.4083409222 
-2.5479432722 3.3001525355 -5.43684021 -2.6787178666 3.5102060499 -5.4725547247 -2.8107433098 3.7194501556 -5.5084181681 
-2.9413858908 3.9308341965 -5.5357915725 -3.0679742596 4.1429310387 -5.574396163 -3.2382620752 4.3194711085 -5.6227248669 
-3.4034421657 4.4981947511 -5.679938478 -3.5627383883 4.6713598955 -5.7644283958 -3.7260812147 4.8202216789 -5.8813013633 
-3.8851823596 4.9781299918 -5.9919891692 -4.0318882388 5.1192579924 -6.1371107474 -4.1776034972 5.267674107 -6.2758180666 
-4.3006385034 5.4063912843 -6.4435080543 -4.3993083167 5.5617470301 -6.612708705 -4.4888422999 5.7516090069 -6.7484882896 
-4.5691850661 5.9608949852 -6.8591427934 -4.6250139927 6.1476728782 -7.0152628647 -2.0326142165 2.9638917436 -6.2331597129 
-1.8379661322 2.9856981232 -6.3885193121 -1.6391598511 3.01010672 -6.5381197233 -1.4501474801 3.0433683747 -6.6983320385 
-1.259729815 3.1333976635 -6.8330014113 -1.0836211307 3.1947706356 -6.9994919203 -0.90834424086 3.2595978692 -7.1655504693 
-0.7571583047 3.3005064676 -7.3604075946 -0.60996519126 3.3440873206 -7.5577268704 -0.49002972453 3.3894289805 -7.7723419158 
-0.36913794691 3.4240836293 -7.988407261 -0.25986560906 3.4360709529 -8.212942025 -0.15574965957 3.4430170546 -8.4401239362 
-0.037148734201 3.3980559853 -8.65555913 0.11474077309 3.3523152081 -8.8487879034 0.25761539666 3.307527632 -9.0489900887 
0.37134473956 3.3170620605 -9.2714192487 0.45184428968 3.4066055838 -9.4905123337 0.52755006512 3.4859579188 -9.7151717258 
0.61963079677 3.5558990082 -9.9368232155 0.71155600796 3.6256716727 -10.158220968 -1.9618163346 3.4463146723 -7.10083102 
-2.0309726592 3.3358535308 -7.3141751996 -2.104616748 3.2322445112 -7.5294464686 -2.190188981 3.1546980797 -7.751175907 
-2.2976904794 3.0825969981 -7.9650563921 -2.3991063146 3.0081621014 -8.1810986901 -2.5152911443 2.932724715 -8.3892099249 
-2.6353777226 2.9151416721 -8.607773532 -2.7375207027 2.9036163259 -8.8356638083 -2.8064497636 2.8770738805 -9.0745032588 
-2.8451554793 2.8922226211 -9.3210238122 -2.8645235536 2.9469414014 -9.5641919285 -2.8916055665 2.9711691852 -9.8115369892 
-2.9352780296 2.950425028 -10.056817229 -2.9962578971 2.9862888521 -10.296598883 -3.0614373976 3.0026472426 -10.537397629 
-3.1480640416 3.0173237865 -10.77144981 -3.2331271899 3.0370317538 -11.005705774 -3.288509663 3.025893663 -11.249239601 
-3.320897827 3.0297427036 -11.497102853 -3.3208786737 3.0038642036 -11.745309351 -2.0235998482 3.9580476516 -7.9547512915 
-1.8641792939 4.1284428016 -8.0444763141 -1.703088157 4.2983186837 -8.1321793946 -1.5312487767 4.4435719007 -8.2411414537 
-1.3581433132 4.5892239683 -8.3475368188 -1.1862146091 4.7158958043 -8.4775166889 -1.0186464144 4.8089534404 -8.6380195752 
-0.86800983641 4.8930373924 -8.8189574385 -0.72884017182 4.9763139347 -9.0092120626 -0.59088419752 5.0655988889 -9.1976168027 
-0.45467165021 5.1541236562 -9.3876418208 -0.32760832179 5.2513809607 -9.5797249468 -0.20178605879 5.3528466093 -9.770443274 
-0.086646172337 5.4573309696 -9.9662131005 0.03316044533 5.5673355231 -10.15606929 0.1539268129 5.6761187869 -10.346021089 
0.26904779452 5.7614038547 -10.550895726 0.38126424888 5.8387279751 -10.76048687 0.52095386486 5.9122322598 -10.954352626 
0.65941290954 5.9812120167 -11.150747346 0.83217367741 6.082715558 -11.299200735 -2.0611579752 4.4358891617 -8.8240748816 
-2.2749039929 4.4474172946 -8.9532249573 -2.4981042812 4.4241463158 -9.0634070468 -2.7250734602 4.4038012478 -9.1662227557 
-2.9418091811 4.3703748547 -9.2862573487 -3.1667417949 4.3351481088 -9.3895259095 -3.3871943636 4.2952164277 -9.5004588882 
-3.6033343095 4.2456788972 -9.6159125883 -3.8152564157 4.1965541869 -9.7391026194 -4.0309626123 4.1245192607 -9.8429380958 
-4.2473437712 4.0832631956 -9.9611630135 -4.4655861722 4.0789046166 -10.083028748 -4.6819146229 4.0739012266 -10.208236445 
-4.9124821926 4.0776730423 -10.304799219 -5.1348570088 4.0688567566 -10.418692652 -5.3596202142 4.1049321565 -10.522037062 
[...]
CELL_DATA 451
SCALARS solution%20variable double
LOOKUP_TABLE default
7634.1755988 7391.7857943 7142.5998779 6884.4562553 6677.7235027 6463.3370586 6241.6479564 6011.8467407 5828.8711441 
5639.0307934 5442.6310501 5238.9325889 5077.5801606 4910.105153 4736.7726274 4556.9125258 4415.0907685 4267.8358252 
4115.377448 3957.1125397 3832.8058242 3703.6987841 3569.9904063 3431.1410741 3322.4391675 3209.511659 3092.5308391 
2971.0162214 2876.1343765 2777.5437142 2675.3934257 2569.257223 2486.54753 2400.5894179 2311.5121253 2218.9382902 
2146.8929162 2072.0055354 1994.3881611 1913.7069125 1850.9537203 1785.7136382 1718.0837882 1647.7682269 1593.0595543 
1536.1701936 1477.1843289 1415.8382623 1368.0321482 1318.3038969 1266.7262988 1213.0618193 1171.0933854 1127.4125718 
1082.0817817 1034.8825726 997.71840143 958.99647821 918.76623057 876.81552883 843.36423357 808.42440397 772.03102207 
733.96296663 703.29478541 671.12294582 637.46054525 602.05187237 576.08549355 548.82213485 520.26847345 490.19297259 
458.28914734 424.13654398 387.13092075 31.793245929 6752.5154224 6617.5366391 6479.7774074 6339.0560225 6195.1701798 
6047.8935496 5896.9715828 5742.1163251 5582.9999379 5419.246508 5250.4215592 5076.0184238 4895.4402447 4707.9757606 
4512.7660303 4308.7575722 4094.6344543 3868.716477 3628.8001318 670.33603884 5891.7556481 5768.7805455 5643.1583966 
5514.7078524 5383.2259703 5248.4844343 5110.2248784 4968.1530411 4821.9313698 4671.1695439 4515.4121504 4354.122392 
4186.6601441 4012.2517641 3829.9475132 3638.5597474 3436.5700592 3221.9838697 2992.0907896 597.33663897 5130.3959369 
5019.1554324 4905.4269218 4789.032677 4669.7728696 4547.4215212 4421.7214472 4292.3778694 4159.050242 4021.3416407 
3878.7847623 3730.8231089 3576.7851653 3415.8480857 3246.9851613 3068.8872205 2879.840161 2677.5243708 2458.6648489 
529.81344325 4459.4678361 4359.5184001 4257.2590697 4152.5187016 4045.1040514 3934.7955594 3821.3420444 3704.4539356 
3583.7945213 3458.9684513 3329.506362 3194.8438939 3054.2923801 2906.9967671 2751.8732338 2587.5130736 2412.0274373 
2222.7812602 2015.90098 467.87403432 3870.1578833 3780.9088022 3689.5398626 3595.8889605 3499.7723671 3400.9804624 
3299.2723203 3194.3687464 3085.9431873 2973.6096607 2856.9064159 2735.2733212 2608.0197562 2474.2776267 2332.9300967 
2182.4986694 2020.9543369 1845.3791482 1651.3014832 411.50799096 3353.9704992 3274.7196635 3193.5439943 3110.2922549 
3024.7924688 2936.8477067 2846.2307054 2752.6768951 2655.8752209 2555.4558388 2450.9732792 2341.8828517 2227.5066474 
2106.9829156 1979.1876447 1842.6070546 1695.1172332 1533.571868 1352.9430243 360.58936463 2902.8581013 2832.8313598 
2761.0737242 2687.4460017 2611.7894626 2533.9217734 2453.6317717 2370.6726536 2284.7529395 2195.5242646 2102.5645112 
2005.3539094 1903.2401512 1795.3856326 1680.6841697 1557.6223541 1424.0325764 1276.6118581 1109.859642 314.8925186 
2509.3105643 2447.699398 2384.5453499 2319.7218496 2253.0842125 2184.4657912 2113.6730066 2040.4788347 1964.614114 
1885.7557162 1803.5100686 1717.3895843 1626.7778667 1530.8763683 1428.6187712 1318.5254242 1198.4368462 1064.9747552 
912.28542727 274.10969879 2166.4036638 2112.3975698 2057.0271882 2000.1786486 1941.7215173 1881.5052177 1819.3543907 
1755.0627834 1688.3850517 1619.0255367 1546.6225219 1470.7255301 1390.7614813 1305.9822005 1215.3789286 1117.5342762 
1010.3444993 890.43850139 751.74338216 237.86267296 1867.8117248 1820.6249094 1772.2408386 1722.5580449 1671.4601002 
1618.8123365 1564.4575818 1508.2105208 1449.8500983 1389.1090644 1325.6592249 1259.0900228 1188.8763475 1114.3281013 
1034.5070353 948.08041051 853.0367673 746.0793809 621.06879604 205.7254091 1607.7850055 1566.6758818 1524.5239945 
1481.2397324 1436.7201197 1390.8458538 1343.4774399 1294.4500647 1243.5666653 1190.5883489 1135.2208122 1077.0945064 
1015.7346183 950.51364446 880.56884445 804.66186501 720.90278657 626.13690167 514.29971825 177.22074423 1381.0987183 
1345.3850505 1308.7706472 1271.1770825 1232.5141205 1192.6770723 1151.5433408 1108.9678252 1064.7766897 1018.7587213 
970.6530295 920.12900324 866.75881666 809.97435102 748.99287329 682.68282882 609.29748846 525.87093503 426.53449538 
151.79414259 1182.9679058 1152.0388248 1120.3395957 1087.8023053 1054.3487284 1019.8880037 984.31358955 947.49817299 
909.28756567 869.49406593 827.88528999 784.16770627 737.96143504 688.75987895 635.86126317 578.24370899 514.31371203 
441.32358324 353.68970976 128.68378352 1008.9199536 982.25053973 954.93109481 926.90174506 898.09345705 868.42595591 
837.80499245 806.118692 773.23257676 738.98262021 703.16528993 665.52281001 625.72049697 583.31023818 537.66809114 
487.87928772 432.50354116 369.02037777 292.17213063 106.43219601 854.55605401 831.69925367 808.29444832 784.29024292 
759.62729876 734.2365136 708.03662842 680.93102296 652.80333621 623.51133783 592.87811227 560.67895753 526.6211385 
490.31106181 451.19775561 408.46764181 360.82671037 305.97461375 238.97436176 80.336048562 714.23036585 693.94521607 
673.15175853 651.79893835 629.8272346 607.16657637 583.73354998 559.42757788 534.12556486 507.67418493 479.87839821 
450.48366562 419.14703483 385.38717864 348.49094246 307.31862555 259.82917819 201.58231913 76.790437623 577.57872441 
551.94908846 525.17951755 497.08113009 467.4089235 435.83530844 401.90504099 364.95253343 323.9341153 277.03516867 
220.51443231 50.013159414 7719.2917209 7803.3874502 7886.6492028 7969.1037761 8050.7766146 8131.6919041 8211.8726566 
8291.340789 8370.1171943 8448.2218076 8525.6736662 8602.4909651 8678.6911088 8754.2907578 8829.3058728 8901.513281 
8973.2992697 9044.5782919 9115.362729 9185.664496 9255.4950656 9324.865491 9393.7864268 9449.6504097 9505.3036574 
9560.6958104 9615.8317398 9670.7161834 9725.3537504 9779.7489265 9833.9060778 9865.68707 9897.4460112 9929.1663583 
9960.8486782 9992.4935296 10024.101463 10055.673023 10087.208743 10087.207997 8963.9473566 10175.480889 11197.553246 
12010.262465 
