# vtk DataFile Version 5.1
vtk output
ASCII
DATASET UNSTRUCTURED_GRID
POINTS 474 double
0 0 -3 -0.11344901018 0.17758382911 -3.1345113591 -0.25315847539 0.33878440002 -3.2648786912 
-0.38126193464 0.50363826191 -3.4024021726 -0.5126230829 0.66576812132 -3.5400907975 -0.65843420624 0.83063257984 -3.6586607204 
-0.82297351213 0.96639713451 -3.7890248355 -0.97532665543 1.1205572503 -3.9136168835 -1.1248934303 1.2712178784 -4.0456439831 
-1.260480867 1.4416481412 -4.1684021702 -1.3678821889 1.6074581306 -4.3216079256 -1.4660695894 1.784059061 -4.4688198332 
-1.5694943891 1.9404801104 -4.6341551474 -1.6843141616 2.0801145574 -4.8068358964 -1.7920938126 2.214324268 -4.9881403376 
-1.8953148049 2.3800598251 -5.1442721788 -1.9325266326 2.5204028889 -5.3477890193 -1.973129178 2.6634701459 -5.548744719 
-1.9865147688 2.7616205381 -5.7782819197 -2.0072616269 2.8605132642 -6.0069515429 -2.0326142165 2.9638917436 -6.2331597129 
-1.9920842053 3.0592208557 -6.4606892244 -1.9658829099 3.1812169213 -6.6773235986 -1.95489032 3.3115244098 -6.8903942944 
-1.9618163346 3.4463146723 -7.10083102 -1.9595558315 3.5807523934 -7.3115948434 -1.9591600912 3.7034011527 -7.5294414069 
-1.9922335507 3.8261433401 -7.744709848 -2.0235998482 3.9580476516 -7.9547512915 -2.053410198 4.0821397433 -8.16972221 
-2.0922570198 4.2101350542 -8.380928566 -2.0673262565 4.3390293584 -8.5936836256 -2.0611579752 4.4358891617 -8.8240748816 
-2.0457609566 4.5389463916 -9.0513239502 -2.0376118219 4.6474567449 -9.2763997037 -2.0620327306 4.7344755807 -9.5094905474 
-2.0678249667 4.7919692102 -9.7527207523 -2.0538188065 4.7894724803 -10.002315612 -2.061454029 4.7954964511 -10.25212637 
-2.0748719743 4.7792135014 -10.501234428 -2.0879807121 4.7450832286 -10.748546549 -2.1011430636 4.7103243177 -10.995768253 
-2.1002295418 4.7008537725 -11.245587136 -2.1048346881 4.6894878057 -11.495286169 -2.0641472069 4.6880886783 -11.741949039 
-2.0210511199 4.6768675797 -11.987950694 -1.9835084387 4.6483785121 -12.233468351 -1.9506827239 4.6230643942 -12.480007736 
-1.9004712217 4.6381689642 -12.724447211 -1.8375331244 4.6537107888 -12.96589544 -1.7745908329 4.6759472614 -13.206818265 
-1.7324654219 4.637703043 -13.450257845 -1.6671038275 4.5609504363 -13.679030438 -1.598399743 4.4811403079 -13.905768376 
-1.5362405788 4.3949975328 -14.132077148 -1.4802902991 4.3079524624 -14.359657292 -1.4132617365 4.2082396067 -14.578893508 
-1.3346237404 4.1025622853 -14.791374964 -1.2639046148 4.0215870271 -15.017077895 -1.1811068059 3.9440623254 -15.239865784 
-1.0986307142 3.8389919159 -15.45118995 -0.9637992344 3.7108445705 -15.618219079 -0.83607035007 3.5887696699 -15.795089231 
-0.67316557472 3.4694079904 -15.942448736 -0.49469270494 3.3540019539 -16.074087946 -0.32610371771 3.2396122859 -16.218976721 
-0.14820477506 3.1356714575 -16.360568636 0.012364935668 3.0233302117 -16.515800116 0.1549159304 2.9000749565 -16.680078405 
0.27000396814 2.7652117596 -16.856335778 0.3829086188 2.6314831379 -17.034855232 0.49747072388 2.4976228367 -17.212216287 
0.60083379182 2.4004242314 -17.418052405 0.66797056282 2.2936634265 -17.633910656 0.75017747883 2.1834571348 -17.842708636 
0.82913521304 2.0737203209 -18.053002496 0.84139766799 2.0604437881 -18.08156333 -0.5126230829 0.66576812132 -3.5400907975 
-0.52277406038 0.77956108233 -3.7624601292 -0.53449030145 0.89788545023 -3.982373916 -0.53515452505 1.0082199251 -4.2067081811 
-0.53644590475 1.1144897642 -4.4329935178 -0.53696454607 1.2507070137 -4.6426231721 -0.51878168185 1.3625180934 -4.8654856093 
-0.50273855675 1.4613674127 -5.0945520412 -0.49082816941 1.5488159746 -5.328455636 -0.53649707025 1.6336061495 -5.5591610277 
-0.58531137867 1.7180366746 -5.7893536638 -0.67092791921 1.7968155302 -6.0106310912 -0.74962718774 1.8695191762 -6.2365085027 
-0.83361798078 1.9305568324 -6.4639287111 -0.91700232593 1.9931029055 -6.6911621587 -0.9753928223 2.0369035191 -6.930268947 
-1.0475750197 2.0677300162 -7.1676282894 -1.1009443958 2.0963864931 -7.4101783173 -1.0913733021 2.1254249614 -7.6583015962 
-1.0949643175 2.1422303757 -7.9077102622 -1.0664266342 2.165504346 -8.1548653099 -1.1248934303 1.2712178784 -4.0456439831 
-1.3701105494 1.2938911888 -4.0025802454 -1.6157087444 1.3095406912 -3.9585732041 -1.8617989566 1.2971902892 -3.9162993943 
-2.1048102068 1.2871864009 -3.8584594899 -2.3536918581 1.2700404026 -3.8422133105 -2.6027259385 1.2509731012 -3.853097466 
-2.8484396668 1.2518422052 -3.8991844311 -3.0916583036 1.2465957369 -3.9567793032 -3.3338077351 1.2274596438 -4.0159186538 
-3.5641759617 1.2403219499 -4.1121737381 -3.7912733809 1.2235452575 -4.2153498243 -4.0204382622 1.2355273717 -4.3145460244 
-4.2478450942 1.2493184055 -4.4174826076 -4.4834828557 1.2739945955 -4.4972693924 -4.7217834282 1.3027450896 -4.567171082 
-4.9607669071 1.3311838138 -4.6348330046 -5.199558466 1.3700473821 -4.6978267701 -5.4302756926 1.4046385181 -4.7876767264 
-5.6506628044 1.4263130494 -4.9036928272 -5.8669179291 1.4821841882 -5.0156676629 -1.5694943891 1.9404801104 -4.6341551474 
-1.4895185985 2.1771164887 -4.6238063594 -1.381831314 2.3982210442 -4.5789039731 -1.2633369749 2.613011121 -4.5306928281 
-1.1462127147 2.8284302862 -4.4819435621 -1.0110186488 3.0229077887 -4.4019369025 -0.87475765502 3.2163027526 -4.3211202613 
-0.70885179817 3.3900448113 -4.2519180669 -0.54644443097 3.5633239055 -4.1738270778 -0.35505468441 3.7110359584 -4.1101787129 
-0.1483501848 3.8487343787 -4.0816761715 0.067808343634 3.9732436541 -4.0651555501 0.28749992486 4.0913120878 -4.0479667714 
0.50374755256 4.2143802933 -4.0236525716 0.73000447932 4.3146703998 -3.988301509 0.94938943915 4.4138568734 -3.9209792775 
1.1649049221 4.5245782177 -3.8593849555 1.3613181123 4.6701551205 -3.8071429788 1.5518888171 4.8233410947 -3.7550194358 
1.7445140987 4.9527028979 -3.6619548088 1.9520510821 5.0706612644 -3.5883375689 -1.9325266326 2.5204028889 -5.3477890193 
-2.0959306286 2.7087500879 -5.365801979 -2.2633102792 2.8933902522 -5.385602541 -2.4178782198 3.0885612485 -5.4083409222 
-2.5479432722 3.3001525355 -5.43684021 -2.6787178666 3.5102060499 -5.4725547247 -2.8107433098 3.7194501556 -5.5084181681 
-2.9413858908 3.9308341965 -5.5357915725 -3.0679742596 4.1429310387 -5.574396163 -3.2382620752 4.3194711085 -5.6227248669 
-3.4034421657 4.4981947511 -5.679938478 -3.5627383883 4.6713598955 -5.7644283958 -3.7260812147 4.8202216789 -5.8813013633 
-3.8851823596 4.9781299918 -5.9919891692 -4.0318882388 5.1192579924 -6.1371107474 -4.1776034972 5.267674107 -6.2758180666 
-4.3006385034 5.4063912843 -6.4435080543 -4.3993083167 5.5617470301 -6.612708705 -4.4888422999 5.7516090069 -6.7484882896 
-4.5691850661 5.9608949852 -6.8591427934 -4.6250139927 6.1476728782 -7.0152628647 -2.0326142165 2.9638917436 -6.2331597129 
-1.8379661322 2.9856981232 -6.3885193121 -1.6391598511 3.01010672 -6.5381197233 -1.4501474801 3.0433683747 -6.6983320385 
-1.259729815 3.1333976635 -6.8330014113 -1.0836211307 3.1947706356 -6.9994919203 -0.90834424086 3.2595978692 -7.1655504693 
-0.7571583047 3.3005064676 -7.3604075946 -0.60996519126 3.3440873206 -7.5577268704 -0.49002972453 3.3894289805 -7.7723419158 
-0.36913794691 3.4240836293 -7.988407261 -0.25986560906 3.4360709529 -8.212942025 -0.15574965957 3.4430170546 -8.4401239362 
-0.037148734201 3.3980559853 -8.65555913 0.11474077309 3.3523152081 -8.8487879034 0.25761539666 3.307527632 -9.0489900887 
0.37134473956 3.3170620605 -9.2714192487 0.45184428968 3.4066055838 -9.4905123337 0.52755006512 3.4859579188 -9.7151717258 
0.61963079677 3.5558990082 -9.9368232155 0.71155600796 3.6256716727 -10.158220968 -1.9618163346 3.4463146723 -7.10083102 
-2.0309726592 3.3358535308 -7.3141751996 -2.104616748 3.2322445112 -7.5294464686 -2.190188981 3.1546980797 -7.751175907 
-2.2976904794 3.0825969981 -7.9650563921 -2.3991063146 3.0081621014 -8.1810986901 -2.5152911443 2.932724715 -8.3892099249 
-2.6353777226 2.9151416721 -8.607773532 -2.7375207027 2.9036163259 -8.8356638083 -2.8064497636 2.8770738805 -9.0745032588 
-2.8451554793 2.8922226211 -9.3210238122 -2.8645235536 2.9469414014 -9.5641919285 -2.8916055665 2.9711691852 -9.8115369892 
-2.9352780296 2.950425028 -10.056817229 -2.9962578971 2.9862888521 -10.296598883 -3.0614373976 3.0026472426 -10.537397629 
-3.1480640416 3.0173237865 -10.77144981 -3.2331271899 3.0370317538 -11.005705774 -3.288509663 3.025893663 -11.249239601 
-3.320897827 3.0297427036 -11.497102853 -3.3208786737 3.0038642036 -11.745309351 -2.0235998482 3.9580476516 -7.9547512915 
-1.8641792939 4.1284428016 -8.0444763141 -1.703088157 4.2983186837 -8.1321793946 -1.5312487767 4.4435719007 -8.2411414537 
-1.3581433132 4.5892239683 -8.3475368188 -1.1862146091 4.7158958043 -8.4775166889 -1.0186464144 4.8089534404 -8.6380195752 
-0.86800983641 4.8930373924 -8.8189574385 -0.72884017182 4.9763139347 -9.0092120626 -0.59088419752 5.0655988889 -9.1976168027 
-0.45467165021 5.1541236562 -9.3876418208 -0.32760832179 5.2513809607 -9.5797249468 -0.20178605879 5.3528466093 -9.770443274 
-0.086646172337 5.4573309696 -9.9662131005 0.03316044533 5.5673355231 -10.15606929 0.1539268129 5.6761187869 -10.346021089 
0.26904779452 5.7614038547 -10.550895726 0.38126424888 5.8387279751 -10.76048687 0.52095386486 5.9122322598 -10.954352626 
0.65941290954 5.9812120167 -11.150747346 0.83217367741 6.082715558 -11.299200735 -2.0611579752 4.4358891617 -8.8240748816 
-2.2749039929 4.4474172946 -8.9532249573 -2.4981042812 4.4241463158 -9.0634070468 -2.7250734602 4.4038012478 -9.1662227557 
-2.9418091811 4.3703748547 -9.2862573487 -3.1667417949 4.3351481088 -9.3895259095 -3.3871943636 4.2952164277 -9.5004588882 
-3.6033343095 4.2456788972 -9.6159125883 -3.8152564157 4.1965541869 -9.7391026194 -4.0309626123 4.1245192607 -9.8429380958 
-4.2473437712 4.0832631956 -9.9611630135 -4.4655861722 4.0789046166 -10.083028748 -4.6819146229 4.0739012266 -10.208236445 
-4.9124821926 4.0776730423 -10.304799219 -5.1348570088 4.0688567566 -10.418692652 -5.3596202142 4.1049321565 -10.522037062 
[...]
CELL_DATA 451
SCALARS solution%20variable double
LOOKUP_TABLE default
7634.2151589 7391.8247373 7142.6381885 6884.4939192 6677.760628 6463.3736307 6241.6839609 6011.8821649 5828.906103 
5639.0652746 5442.6650412 5238.9660796 5077.6132716 4910.137875 4736.8049512 4556.9444445 4415.1224074 4267.8671793 
4115.4085123 3957.1433124 3832.8364341 3703.7292319 3570.0206927 3431.1712039 3322.4692724 3209.5417472 3092.5609183 
2971.0463049 2876.1645987 2777.5740926 2675.4239766 2569.2879704 2486.5786101 2400.6208593 2311.5439548 2218.9705446 
2146.9257315 2072.0389529 1994.4222196 1913.7416632 1850.989294 1785.75009 1718.1211693 1647.806604 1593.0990418 
1536.2108595 1477.2262357 1415.8814908 1368.0767752 1318.3499995 1266.7739459 1213.1111011 1171.1443038 1127.4652037 
1082.136192 1034.9388493 997.77641165 959.05628433 918.82787891 876.87909004 843.42933564 808.49106242 772.09923147 
734.03274394 703.36552935 671.19458378 637.53297828 602.1250174 576.15933054 548.89648606 520.34312129 490.26769701 
458.36373496 424.21080605 387.20473063 31.796605262 6752.5528108 6617.5737386 6479.8142036 6339.0925009 6195.2063258 
6047.9293487 5897.0070204 5742.1513867 5583.0346094 5419.2807756 5250.4554097 5076.0518452 4895.4732266 4708.0082947 
4512.7981117 4308.789201 4094.665638 3868.7472346 3628.8305005 670.33935512 5891.7907833 5768.815376 5643.1929059 
5514.7420236 5383.2597862 5248.5178776 5110.2579315 4968.1856864 4821.9635896 4671.2013207 4515.4434672 4354.1532322 
4186.6904926 4012.2816076 3829.9768416 3638.5885556 3436.5983501 3222.0116592 2992.1181162 597.33993082 5130.42913 
5019.1883099 4905.4594646 4789.0648657 4669.8046842 4547.4529415 4421.7524524 4292.4084383 4159.0803532 4021.3712725 
3878.8138929 3730.8517169 3576.8132299 3415.8755875 3247.0120836 3068.9135509 2879.8658955 2677.5495194 2458.6894482 
529.81671657 4459.4994534 4359.5496952 4257.2900212 4152.5492873 4045.1342484 3934.8253442 3821.3713927 3704.4828225 
3583.8229212 3458.9963378 3329.5337083 3194.8706728 3054.3185643 2907.0223302 2751.8981508 2587.5373234 2412.0510058 
2222.804148 2015.9232179 467.87730419 3870.188355 3780.9389497 3689.5696614 3595.9183854 3499.8013921 3401.0090602 
3299.300463 3194.3964048 3085.9703311 2973.6362586 2856.9324354 2735.2987287 2608.0445172 2474.3017064 2332.9534605 
2182.5212851 2020.976178 1845.4002018 1651.3217686 411.51128464 3354.0003325 3274.7491739 3193.5731543 3110.3210356 
3024.8208404 2936.8756381 2846.2581641 2752.7038472 2655.9016309 2555.4816697 2450.998492 2341.9074055 2227.5304996 
2107.0060216 1979.209959 1842.6285316 1695.1378307 1533.5915552 1352.9618025 360.59272503 2902.8878967 2832.8608371 
2761.1028516 2687.4747462 2611.8177899 2533.9496474 2453.6591548 2370.6995061 2284.7792198 2195.5499288 2102.5895127 
2005.3781988 1903.2636763 1795.4083374 1680.7059955 1557.6432394 1424.0524597 1276.6306848 1109.8773873 314.89600752 
2509.3410367 2447.7295608 2384.5751662 2319.7512809 2253.1132186 2184.4943298 2113.7010336 2040.5063032 1964.6409746 
1885.7819165 1803.5355527 1717.4142924 1626.8017344 1530.8993263 1428.6407444 1318.5463317 1198.4566023 1064.9932749 
912.30264884 274.11340302 2166.4356639 2112.4292747 2057.0585543 2000.2096302 1941.7520663 1881.5352838 1819.3839208 
1755.0917213 1688.4133379 1619.0531076 1546.6493095 1470.7514611 1390.7864763 1306.0061725 1215.4017822 1117.5559058 
1010.3647886 890.45732565 751.76062986 237.86670953 1867.8462551 1820.6591702 1772.2747767 1722.5916048 1671.4932233 
1618.8449612 1564.489643 1508.2419496 1449.8808214 1389.1390033 1325.6882951 1259.1181331 1188.9033981 1114.3539823 
1034.5316242 948.10356931 853.05834077 746.09919385 621.08666705 205.72993024 1607.8232203 1566.7138739 1524.5616979 
1481.2770775 1436.7570337 1390.8822595 1343.5132556 1294.4852038 1243.6010353 1190.6218508 1135.2533391 1077.1259421 
1015.7648353 950.54250147 880.59618455 804.68750913 720.92652667 626.15849315 514.31888285 177.22594471 1381.1418842 
1345.428078 1308.8134525 1271.2195772 1232.5562114 1192.7186606 1151.5843218 1109.0080875 1064.8161142 1018.7971799 
970.69038372 920.16510484 866.79350263 810.00743993 749.02416005 682.71207704 609.32441894 525.89520931 426.55570125 
151.80025546 1183.0172929 1152.0882209 1120.3888927 1087.8513888 1054.3974773 1019.9362893 984.36127484 947.54511501 
909.33361138 869.5390508 827.929036 784.21001931 738.0021013 688.79865989 635.89788807 578.27786374 514.34502141 
441.3515822 353.7138031 128.69105795 1008.9766104 982.30745368 954.98812933 926.95875492 898.15028782 868.48244309 
837.86096059 806.1739535 773.28693035 739.03584901 703.21715894 665.57306258 625.76885013 583.35637573 537.71165356 
487.91985642 432.54061271 369.05331943 292.20010566 106.44078938 854.62047018 831.76437713 808.36010558 784.35624813 
759.69345279 734.30260308 708.10242453 680.99627992 652.86778938 623.57470124 592.94007542 560.73918102 526.67924796 
490.36663924 451.25032638 408.51665443 360.87150317 306.01435728 239.00796606 80.345436743 714.30137264 694.01726229 
673.22461735 651.8723645 629.90096305 607.24032076 583.80700067 559.50039953 534.19739321 507.74462267 479.94700924 
450.54996703 419.21048516 385.44715998 348.54673138 307.36934245 259.8736899 201.6190272 76.802810685 577.65156357 
552.02131674 525.25078725 497.15106334 467.47710764 435.90128995 401.96831748 365.01254336 323.99022708 277.08668195 
220.56068375 50.020696645 7719.3314973 7803.4274269 7886.689364 7969.1441062 8050.8170986 8131.7325271 8211.9134041 
8291.3816469 8370.1581487 8448.2628448 8525.7147728 8602.5321282 8678.7323154 8754.3319953 8829.347129 8901.5545517 
8973.3405424 9044.6195547 9115.4039701 9185.705704 9255.5362292 9324.9065992 9393.8274687 9449.6914275 9505.3446387 
9560.7367434 9615.8726129 9670.7569852 9725.3944698 9779.7895523 9833.9465993 9865.7275654 9897.486468 9929.2067641 
9960.8890209 9992.5337972 10024.141644 10055.713105 10087.248715 10087.247969 8963.9881313 10175.518714 11197.588458 
12010.295283 
