# vtk DataFile Version 5.1
vtk output
ASCII
DATASET UNSTRUCTURED_GRID
POINTS 474 double
0 0 -3 -0.11344901018 0.17758382911 -3.1345113591 -0.25315847539 0.33878440002 -3.2648786912 
-0.38126193464 0.50363826191 -3.4024021726 -0.5126230829 0.66576812132 -3.5400907975 -0.65843420624 0.83063257984 -3.6586607204 
-0.82297351213 0.96639713451 -3.7890248355 -0.97532665543 1.1205572503 -3.9136168835 -1.1248934303 1.2712178784 -4.0456439831 
-1.260480867 1.4416481412 -4.1684021702 -1.3678821889 1.6074581306 -4.3216079256 -1.4660695894 1.784059061 -4.4688198332 
-1.5694943891 1.9404801104 -4.6341551474 -1.6843141616 2.0801145574 -4.8068358964 -1.7920938126 2.214324268 -4.9881403376 
-1.8953148049 2.3800598251 -5.1442721788 -1.9325266326 2.5204028889 -5.3477890193 -1.973129178 2.6634701459 -5.548744719 
-1.9865147688 2.7616205381 -5.7782819197 -2.0072616269 2.8605132642 -6.0069515429 -2.0326142165 2.9638917436 -6.2331597129 
-1.9920842053 3.0592208557 -6.4606892244 -1.9658829099 3.1812169213 -6.6773235986 -1.95489032 3.3115244098 -6.8903942944 
-1.9618163346 3.4463146723 -7.10083102 -1.9595558315 3.5807523934 -7.3115948434 -1.9591600912 3.7034011527 -7.5294414069 
-1.9922335507 3.8261433401 -7.744709848 -2.0235998482 3.9580476516 -7.9547512915 -2.053410198 4.0821397433 -8.16972221 
-2.0922570198 4.2101350542 -8.380928566 -2.0673262565 4.3390293584 -8.5936836256 -2.0611579752 4.4358891617 -8.8240748816 
-2.0457609566 4.5389463916 -9.0513239502 -2.0376118219 4.6474567449 -9.2763997037 -2.0620327306 4.7344755807 -9.5094905474 
-2.0678249667 4.7919692102 -9.7527207523 -2.0538188065 4.7894724803 -10.002315612 -2.061454029 4.7954964511 -10.25212637 
-2.0748719743 4.7792135014 -10.501234428 -2.0879807121 4.7450832286 -10.748546549 -2.1011430636 4.7103243177 -10.995768253 
-2.1002295418 4.7008537725 -11.245587136 -2.1048346881 4.6894878057 -11.495286169 -2.0641472069 4.6880886783 -11.741949039 
-2.0210511199 4.6768675797 -11.987950694 -1.9835084387 4.6483785121 -12.233468351 -1.9506827239 4.6230643942 -12.480007736 
-1.9004712217 4.6381689642 -12.724447211 -1.8375331244 4.6537107888 -12.96589544 -1.7745908329 4.6759472614 -13.206818265 
-1.7324654219 4.637703043 -13.450257845 -1.6671038275 4.5609504363 -13.679030438 -1.598399743 4.4811403079 -13.905768376 
-1.5362405788 4.3949975328 -14.132077148 -1.4802902991 4.3079524624 -14.359657292 -1.4132617365 4.2082396067 -14.578893508 
-1.3346237404 4.1025622853 -14.791374964 -1.2639046148 4.0215870271 -15.017077895 -1.1811068059 3.9440623254 -15.239865784 
-1.0986307142 3.8389919159 -15.45118995 -0.9637992344 3.7108445705 -15.618219079 -0.83607035007 3.5887696699 -15.795089231 
-0.67316557472 3.4694079904 -15.942448736 -0.49469270494 3.3540019539 -16.074087946 -0.32610371771 3.2396122859 -16.218976721 
-0.14820477506 3.1356714575 -16.360568636 0.012364935668 3.0233302117 -16.515800116 0.1549159304 2.9000749565 -16.680078405 
0.27000396814 2.7652117596 -16.856335778 0.3829086188 2.6314831379 -17.034855232 0.49747072388 2.4976228367 -17.212216287 
0.60083379182 2.4004242314 -17.418052405 0.66797056282 2.2936634265 -17.633910656 0.75017747883 2.1834571348 -17.842708636 
0.82913521304 2.0737203209 -18.053002496 0.84139766799 2.0604437881 -18.08156333 -0.5126230829 0.66576812132 -3.5400907975 
-0.52277406038 0.77956108233 -3.7624601292 -0.53449030145 0.89788545023 -3.982373916 -0.53515452505 1.0082199251 -4.2067081811 
-0.53644590475 1.1144897642 -4.4329935178 -0.53696454607 1.2507070137 -4.6426231721 -0.51878168185 1.3625180934 -4.8654856093 
-0.50273855675 1.4613674127 -5.0945520412 -0.49082816941 1.5488159746 -5.328455636 -0.53649707025 1.6336061495 -5.5591610277 
-0.58531137867 1.7180366746 -5.7893536638 -0.67092791921 1.7968155302 -6.0106310912 -0.74962718774 1.8695191762 -6.2365085027 
-0.83361798078 1.9305568324 -6.4639287111 -0.91700232593 1.9931029055 -6.6911621587 -0.9753928223 2.0369035191 -6.930268947 
-1.0475750197 2.0677300162 -7.1676282894 -1.1009443958 2.0963864931 -7.4101783173 -1.0913733021 2.1254249614 -7.6583015962 
-1.0949643175 2.1422303757 -7.9077102622 -1.0664266342 2.165504346 -8.1548653099 -1.1248934303 1.2712178784 -4.0456439831 
-1.3701105494 1.2938911888 -4.0025802454 -1.6157087444 1.3095406912 -3.9585732041 -1.8617989566 1.2971902892 -3.9162993943 
-2.1048102068 1.2871864009 -3.8584594899 -2.3536918581 1.2700404026 -3.8422133105 -2.6027259385 1.2509731012 -3.853097466 
-2.8484396668 1.2518422052 -3.8991844311 -3.0916583036 1.2465957369 -3.9567793032 -3.3338077351 1.2274596438 -4.0159186538 
-3.5641759617 1.2403219499 -4.1121737381 -3.7912733809 1.2235452575 -4.2153498243 -4.0204382622 1.2355273717 -4.3145460244 
-4.2478450942 1.2493184055 -4.4174826076 -4.4834828557 1.2739945955 -4.4972693924 -4.7217834282 1.3027450896 -4.567171082 
-4.9607669071 1.3311838138 -4.6348330046 -5.199558466 1.3700473821 -4.6978267701 -5.4302756926 1.4046385181 -4.7876767264 
-5.6506628044 1.4263130494 -4.9036928272 -5.8669179291 1.4821841882 -5.0156676629 -1.5694943891 1.9404801104 -4.6341551474 
-1.4895185985 2.1771164887 -4.6238063594 -1.381831314 2.3982210442 -4.5789039731 -1.2633369749 2.613011121 -4.5306928281 
-1.1462127147 2.8284302862 -4.4819435621 -1.0110186488 3.0229077887 -4.4019369025 -0.87475765502 3.2163027526 -4.3211202613 
-0.70885179817 3.3900448113 -4.2519180669 -0.54644443097 3.5633239055 -4.1738270778 -0.35505468441 3.7110359584 -4.1101787129 
-0.1483501848 3.8487343787 -4.0816761715 0.067808343634 3.9732436541 -4.0651555501 0.28749992486 4.0913120878 -4.0479667714 
0.50374755256 4.2143802933 -4.0236525716 0.73000447932 4.3146703998 -3.988301509 0.94938943915 4.4138568734 -3.9209792775 
1.1649049221 4.5245782177 -3.8593849555 1.3613181123 4.6701551205 -3.8071429788 1.5518888171 4.8233410947 -3.7550194358 
1.7445140987 4.9527028979 -3.6619548088 1.9520510821 5.0706612644 -3.5883375689 -1.9325266326 2.5204028889 -5.3477890193 
-2.0959306286 2.7087500879 -5.365801979 -2.2633102792 2.8933902522 -5.385602541 -2.4178782198 3.0885612485 -5.4083409222 
-2.5479432722 3.3001525355 -5.43684021 -2.6787178666 3.5102060499 -5.4725547247 -2.8107433098 3.7194501556 -5.5084181681 
-2.9413858908 3.9308341965 -5.5357915725 -3.0679742596 4.1429310387 -5.574396163 -3.2382620752 4.3194711085 -5.6227248669 
-3.4034421657 4.4981947511 -5.679938478 -3.5627383883 4.6713598955 -5.7644283958 -3.7260812147 4.8202216789 -5.8813013633 
-3.8851823596 4.9781299918 -5.9919891692 -4.0318882388 5.1192579924 -6.1371107474 -4.1776034972 5.267674107 -6.2758180666 
-4.3006385034 5.4063912843 -6.4435080543 -4.3993083167 5.5617470301 -6.612708705 -4.4888422999 5.7516090069 -6.7484882896 
-4.5691850661 5.9608949852 -6.8591427934 -4.6250139927 6.1476728782 -7.0152628647 -2.0326142165 2.9638917436 -6.2331597129 
-1.8379661322 2.9856981232 -6.3885193121 -1.6391598511 3.01010672 -6.5381197233 -1.4501474801 3.0433683747 -6.6983320385 
-1.259729815 3.1333976635 -6.8330014113 -1.0836211307 3.1947706356 -6.9994919203 -0.90834424086 3.2595978692 -7.1655504693 
-0.7571583047 3.3005064676 -7.3604075946 -0.60996519126 3.3440873206 -7.5577268704 -0.49002972453 3.3894289805 -7.7723419158 
-0.36913794691 3.4240836293 -7.988407261 -0.25986560906 3.4360709529 -8.212942025 -0.15574965957 3.4430170546 -8.4401239362 
-0.037148734201 3.3980559853 -8.65555913 0.11474077309 3.3523152081 -8.8487879034 0.25761539666 3.307527632 -9.0489900887 
0.37134473956 3.3170620605 -9.2714192487 0.45184428968 3.4066055838 -9.4905123337 0.52755006512 3.4859579188 -9.7151717258 
0.61963079677 3.5558990082 -9.9368232155 0.71155600796 3.6256716727 -10.158220968 -1.9618163346 3.4463146723 -7.10083102 
-2.0309726592 3.3358535308 -7.3141751996 -2.104616748 3.2322445112 -7.5294464686 -2.190188981 3.1546980797 -7.751175907 
-2.2976904794 3.0825969981 -7.9650563921 -2.3991063146 3.0081621014 -8.1810986901 -2.5152911443 2.932724715 -8.3892099249 
-2.6353777226 2.9151416721 -8.607773532 -2.7375207027 2.9036163259 -8.8356638083 -2.8064497636 2.8770738805 -9.0745032588 
-2.8451554793 2.8922226211 -9.3210238122 -2.8645235536 2.9469414014 -9.5641919285 -2.8916055665 2.9711691852 -9.8115369892 
-2.9352780296 2.950425028 -10.056817229 -2.9962578971 2.9862888521 -10.296598883 -3.0614373976 3.0026472426 -10.537397629 
-3.1480640416 3.0173237865 -10.77144981 -3.2331271899 3.0370317538 -11.005705774 -3.288509663 3.025893663 -11.249239601 
-3.320897827 3.0297427036 -11.497102853 -3.3208786737 3.0038642036 -11.745309351 -2.0235998482 3.9580476516 -7.9547512915 
-1.8641792939 4.1284428016 -8.0444763141 -1.703088157 4.2983186837 -8.1321793946 -1.5312487767 4.4435719007 -8.2411414537 
-1.3581433132 4.5892239683 -8.3475368188 -1.1862146091 4.7158958043 -8.4775166889 -1.0186464144 4.8089534404 -8.6380195752 
-0.86800983641 4.8930373924 -8.8189574385 -0.72884017182 4.9763139347 -9.0092120626 -0.59088419752 5.0655988889 -9.1976168027 
-0.45467165021 5.1541236562 -9.3876418208 -0.32760832179 5.2513809607 -9.5797249468 -0.20178605879 5.3528466093 -9.770443274 
-0.086646172337 5.4573309696 -9.9662131005 0.03316044533 5.5673355231 -10.15606929 0.1539268129 5.6761187869 -10.346021089 
0.26904779452 5.7614038547 -10.550895726 0.38126424888 5.8387279751 -10.76048687 0.52095386486 5.9122322598 -10.954352626 
0.65941290954 5.9812120167 -11.150747346 0.83217367741 6.082715558 -11.299200735 -2.0611579752 4.4358891617 -8.8240748816 
-2.2749039929 4.4474172946 -8.9532249573 -2.4981042812 4.4241463158 -9.0634070468 -2.7250734602 4.4038012478 -9.1662227557 
-2.9418091811 4.3703748547 -9.2862573487 -3.1667417949 4.3351481088 -9.3895259095 -3.3871943636 4.2952164277 -9.5004588882 
-3.6033343095 4.2456788972 -9.6159125883 -3.8152564157 4.1965541869 -9.7391026194 -4.0309626123 4.1245192607 -9.8429380958 
-4.2473437712 4.0832631956 -9.9611630135 -4.4655861722 4.0789046166 -10.083028748 -4.6819146229 4.0739012266 -10.208236445 
-4.9124821926 4.0776730423 -10.304799219 -5.1348570088 4.0688567566 -10.418692652 -5.3596202142 4.1049321565 -10.522037062 
[...]
CELL_DATA 451
SCALARS solution%20variable double
LOOKUP_TABLE default
7634.3841718 7391.9911139 7142.8018625 6884.65483 6677.919238 6463.5298763 6241.8377814 6012.0335055 5829.0554558 
5639.2125854 5442.810258 5239.1091578 5077.7547273 4910.2776678 4736.9430418 4557.0808039 4415.2575705 4268.0011245 
4115.5412183 3957.2747714 3832.9671962 3703.8593002 3570.1500694 3431.2999097 3322.5978701 3209.6702714 3092.6894015 
2971.1748039 2876.2936876 2777.7038452 2675.5544628 2569.4192921 2486.7113494 2400.7551373 2311.679886 2219.108285 
2147.0658624 2072.1816498 1994.5676477 1913.8900406 1851.141179 1785.9057168 1718.2807562 1647.9704349 1593.2676042 
1536.3844432 1477.4051065 1416.0659932 1368.2672357 1318.5467466 1266.9772724 1213.3213905 1171.3615641 1127.6897619 
1082.3683237 1035.1789285 998.02387163 959.31138999 919.09082654 877.15017944 843.70698275 808.77533215 772.39009958 
734.33028142 703.66717906 671.5000357 637.84181019 602.4368748 576.47413219 549.21347476 520.66137019 490.58626897 
458.68172144 424.52740364 387.51940081 31.810923182 6752.7125452 6617.7322382 6479.9714074 6339.2483471 6195.3607523 
6048.0822931 5897.1584204 5742.3011805 5583.1827363 5419.4271768 5250.6000294 5076.1946319 4895.6141353 4708.1472903 
4512.9351733 4308.9243289 4094.7988644 3868.8786407 3628.9602452 670.35352313 5891.9408899 5768.9641809 5643.3403382 
5514.8880114 5383.4042563 5248.6607558 5110.3991429 4968.3251556 4822.1012411 4671.3370797 4515.5772605 4354.2849898 
4186.8201493 4012.409107 3830.1021406 3638.7116322 3436.7192165 3222.1303838 2992.234863 597.35399439 5130.5709372 
5019.3287683 4905.5984932 4789.2023815 4669.9406023 4547.5871749 4421.8849125 4292.5390348 4159.2089942 4021.4978654 
3878.9383448 3730.9739361 3576.9331275 3415.9930809 3247.1271011 3069.0260404 2879.9758389 2677.6569599 2458.7945418 
529.83070071 4459.634525 4359.6833909 4257.4222489 4152.6799522 4045.2632529 3934.9525878 3821.4967717 3704.6062303 
3583.9442482 3459.1154717 3329.6505344 3194.9850749 3054.4304264 2907.1315386 2752.0045992 2587.640921 2412.1516933 
2222.9019279 2016.0182209 467.89127327 3870.3185284 3781.0677379 3689.6969602 3596.044087 3499.925385 3401.1312287 
3299.4206871 3194.5145601 3086.0862884 2973.7498838 2857.0435896 2735.4072684 2608.1502953 2474.4045739 2333.0532701 
2182.6178989 2021.0694827 1845.4901427 1651.4084281 411.52535504 3354.1277719 3274.8752344 3193.6977175 3110.443979 
3024.9420362 2936.9949534 2846.3754604 2752.8189797 2656.0144481 2555.5920129 2451.1061948 2342.0122936 2227.6323905 
2107.1047255 1979.3052807 1842.7202768 1695.2258192 1533.6756547 1353.0420192 360.60707976 2903.0151652 2832.9867467 
2761.227267 2687.5975264 2611.9387879 2534.0687094 2453.7761198 2370.8142051 2284.8914748 2195.659552 2102.6963054 
2005.4819503 1903.3641625 1795.5053205 1680.7992239 1557.7324507 1424.1373909 1276.7111032 1109.9531866 314.91091019 
2509.4711842 2447.8583858 2384.7025114 2319.8769821 2253.2371038 2184.6162189 2113.8207372 2040.6236217 1964.7556971 
1885.8938188 1803.6443961 1717.5198215 1626.9036745 1530.997381 1428.7345932 1318.635629 1198.5409821 1065.0723746 
912.37620414 274.12922386 2166.5723187 2112.5646694 2057.1925022 2000.3419358 1941.882525 1881.6636803 1819.5100284 
1755.2153001 1688.5341336 1619.170849 1546.763706 1470.8621997 1390.8932175 1306.1085456 1215.4993793 1117.6482762 
1010.4514349 890.53771597 751.83428779 237.88394767 1867.9936919 1820.8054564 1772.4196856 1722.7348986 1671.6346522 
1618.9842623 1564.6265385 1508.376145 1450.0120035 1389.266837 1325.8124203 1259.2381596 1189.0188999 1114.4644902 
1034.6366154 948.20245445 853.15045708 746.18379334 621.16297517 205.74923464 1607.9863586 1566.8760614 1524.7226527 
1481.4365036 1436.914619 1391.0376749 1343.6661527 1294.6352126 1243.7477612 1190.7648707 1135.3921967 1077.2601415 
1015.8938325 950.66569293 880.71290057 804.79698523 721.02787484 626.25066924 514.40069907 177.24814544 1381.3261192 
1345.6117221 1308.9961478 1271.4009469 1232.7358572 1192.8961615 1151.7592307 1109.1799287 1064.9843792 1018.9613224 
970.84981295 920.31918788 866.94154378 810.1486649 749.15769363 682.83691029 609.43936041 525.99881457 426.64621129 
151.82634495 1183.2280304 1152.2989957 1120.5992438 1088.0608283 1054.605488 1020.1423221 984.56474552 947.74541343 
909.53008467 869.73099697 828.11569556 784.39056412 738.17561924 688.96413321 636.05416182 578.42359787 514.47861514 
441.47105162 353.81660909 128.72209604 1009.2183076 982.55024492 955.23143188 927.20194942 898.39271546 868.72340238 
838.09970325 806.40967942 773.51878119 739.26289992 703.43840766 665.78741479 625.97509902 583.55317294 537.89746596 
488.09289902 432.69873874 369.19383068 292.31943433 106.47744186 854.8951979 832.04211319 808.64011031 784.63772897 
759.97556078 734.5844286 708.38299214 681.27454191 653.14261772 623.84487711 593.20427545 560.99595872 526.9270079 
490.60360002 451.47446535 408.72562144 361.06247849 306.18380624 239.15124433 80.385459983 714.60413566 694.32444021 
673.53524313 652.18539263 630.21526398 607.55467422 584.12008737 559.81079075 534.50353736 508.04482739 480.23941714 
450.8325215 419.4808804 385.70276458 348.78446464 307.58545865 260.06336339 201.77545103 76.855529392 577.96210757 
552.32924755 525.5546235 497.4491951 467.76777695 436.18256496 402.23805828 365.26835825 324.22942628 277.30628335 
220.75786448 50.052820933 7719.5014347 7803.5982198 7886.8609449 7969.3164091 8050.9900589 8131.9060815 8212.0874907 
8291.556205 8370.3331189 8448.4381689 8525.8903938 8602.7079901 8678.9083634 8754.5081757 8829.523389 8901.7308739 
8973.5168732 9044.795843 9115.580166 9185.8817584 9255.7120941 9325.0822273 9394.0028138 9449.8666693 9505.5197248 
9560.9116233 9616.0472371 9670.9313049 9725.568437 9779.9631199 9834.119721 9865.9005756 9897.6593131 9929.3793918 
9961.0613793 9992.7058349 10024.31331 10055.884349 10087.419488 10087.418745 8964.1623345 10175.680316 11197.738896 
12010.435492 
