# vtk DataFile Version 5.1
vtk output
ASCII
DATASET UNSTRUCTURED_GRID
POINTS 474 double
0 0 -3 -0.11344901018 0.17758382911 -3.1345113591 -0.25315847539 0.33878440002 -3.2648786912 
-0.38126193464 0.50363826191 -3.4024021726 -0.5126230829 0.66576812132 -3.5400907975 -0.65843420624 0.83063257984 -3.6586607204 
-0.82297351213 0.96639713451 -3.7890248355 -0.97532665543 1.1205572503 -3.9136168835 -1.1248934303 1.2712178784 -4.0456439831 
-1.260480867 1.4416481412 -4.1684021702 -1.3678821889 1.6074581306 -4.3216079256 -1.4660695894 1.784059061 -4.4688198332 
-1.5694943891 1.9404801104 -4.6341551474 -1.6843141616 2.0801145574 -4.8068358964 -1.7920938126 2.214324268 -4.9881403376 
-1.8953148049 2.3800598251 -5.1442721788 -1.9325266326 2.5204028889 -5.3477890193 -1.973129178 2.6634701459 -5.548744719 
-1.9865147688 2.7616205381 -5.7782819197 -2.0072616269 2.8605132642 -6.0069515429 -2.0326142165 2.9638917436 -6.2331597129 
-1.9920842053 3.0592208557 -6.4606892244 -1.9658829099 3.1812169213 -6.6773235986 -1.95489032 3.3115244098 -6.8903942944 
-1.9618163346 3.4463146723 -7.10083102 -1.9595558315 3.5807523934 -7.3115948434 -1.9591600912 3.7034011527 -7.5294414069 
-1.9922335507 3.8261433401 -7.744709848 -2.0235998482 3.9580476516 -7.9547512915 -2.053410198 4.0821397433 -8.16972221 
-2.0922570198 4.2101350542 -8.380928566 -2.0673262565 4.3390293584 -8.5936836256 -2.0611579752 4.4358891617 -8.8240748816 
-2.0457609566 4.5389463916 -9.0513239502 -2.0376118219 4.6474567449 -9.2763997037 -2.0620327306 4.7344755807 -9.5094905474 
-2.0678249667 4.7919692102 -9.7527207523 -2.0538188065 4.7894724803 -10.002315612 -2.061454029 4.7954964511 -10.25212637 
-2.0748719743 4.7792135014 -10.501234428 -2.0879807121 4.7450832286 -10.748546549 -2.1011430636 4.7103243177 -10.995768253 
-2.1002295418 4.7008537725 -11.245587136 -2.1048346881 4.6894878057 -11.495286169 -2.0641472069 4.6880886783 -11.741949039 
-2.0210511199 4.6768675797 -11.987950694 -1.9835084387 4.6483785121 -12.233468351 -1.9506827239 4.6230643942 -12.480007736 
-1.9004712217 4.6381689642 -12.724447211 -1.8375331244 4.6537107888 -12.96589544 -1.7745908329 4.6759472614 -13.206818265 
-1.7324654219 4.637703043 -13.450257845 -1.6671038275 4.5609504363 -13.679030438 -1.598399743 4.4811403079 -13.905768376 
-1.5362405788 4.3949975328 -14.132077148 -1.4802902991 4.3079524624 -14.359657292 -1.4132617365 4.2082396067 -14.578893508 
-1.3346237404 4.1025622853 -14.791374964 -1.2639046148 4.0215870271 -15.017077895 -1.1811068059 3.9440623254 -15.239865784 
-1.0986307142 3.8389919159 -15.45118995 -0.9637992344 3.7108445705 -15.618219079 -0.83607035007 3.5887696699 -15.795089231 
-0.67316557472 3.4694079904 -15.942448736 -0.49469270494 3.3540019539 -16.074087946 -0.32610371771 3.2396122859 -16.218976721 
-0.14820477506 3.1356714575 -16.360568636 0.012364935668 3.0233302117 -16.515800116 0.1549159304 2.9000749565 -16.680078405 
0.27000396814 2.7652117596 -16.856335778 0.3829086188 2.6314831379 -17.034855232 0.49747072388 2.4976228367 -17.212216287 
0.60083379182 2.4004242314 -17.418052405 0.66797056282 2.2936634265 -17.633910656 0.75017747883 2.1834571348 -17.842708636 
0.82913521304 2.0737203209 -18.053002496 0.84139766799 2.0604437881 -18.08156333 -0.5126230829 0.66576812132 -3.5400907975 
-0.52277406038 0.77956108233 -3.7624601292 -0.53449030145 0.89788545023 -3.982373916 -0.53515452505 1.0082199251 -4.2067081811 
-0.53644590475 1.1144897642 -4.4329935178 -0.53696454607 1.2507070137 -4.6426231721 -0.51878168185 1.3625180934 -4.8654856093 
-0.50273855675 1.4613674127 -5.0945520412 -0.49082816941 1.5488159746 -5.328455636 -0.53649707025 1.6336061495 -5.5591610277 
-0.58531137867 1.7180366746 -5.7893536638 -0.67092791921 1.7968155302 -6.0106310912 -0.74962718774 1.8695191762 -6.2365085027 
-0.83361798078 1.9305568324 -6.4639287111 -0.91700232593 1.9931029055 -6.6911621587 -0.9753928223 2.0369035191 -6.930268947 
-1.0475750197 2.0677300162 -7.1676282894 -1.1009443958 2.0963864931 -7.4101783173 -1.0913733021 2.1254249614 -7.6583015962 
-1.0949643175 2.1422303757 -7.9077102622 -1.0664266342 2.165504346 -8.1548653099 -1.1248934303 1.2712178784 -4.0456439831 
-1.3701105494 1.2938911888 -4.0025802454 -1.6157087444 1.3095406912 -3.9585732041 -1.8617989566 1.2971902892 -3.9162993943 
-2.1048102068 1.2871864009 -3.8584594899 -2.3536918581 1.2700404026 -3.8422133105 -2.6027259385 1.2509731012 -3.853097466 
-2.8484396668 1.2518422052 -3.8991844311 -3.0916583036 1.2465957369 -3.9567793032 -3.3338077351 1.2274596438 -4.0159186538 
-3.5641759617 1.2403219499 -4.1121737381 -3.7912733809 1.2235452575 -4.2153498243 -4.0204382622 1.2355273717 -4.3145460244 
-4.2478450942 1.2493184055 -4.4174826076 -4.4834828557 1.2739945955 -4.4972693924 -4.7217834282 1.3027450896 -4.567171082 
-4.9607669071 1.3311838138 -4.6348330046 -5.199558466 1.3700473821 -4.6978267701 -5.4302756926 1.4046385181 -4.7876767264 
-5.6506628044 1.4263130494 -4.9036928272 -5.8669179291 1.4821841882 -5.0156676629 -1.5694943891 1.9404801104 -4.6341551474 
-1.4895185985 2.1771164887 -4.6238063594 -1.381831314 2.3982210442 -4.5789039731 -1.2633369749 2.613011121 -4.5306928281 
-1.1462127147 2.8284302862 -4.4819435621 -1.0110186488 3.0229077887 -4.4019369025 -0.87475765502 3.2163027526 -4.3211202613 
-0.70885179817 3.3900448113 -4.2519180669 -0.54644443097 3.5633239055 -4.1738270778 -0.35505468441 3.7110359584 -4.1101787129 
-0.1483501848 3.8487343787 -4.0816761715 0.067808343634 3.9732436541 -4.0651555501 0.28749992486 4.0913120878 -4.0479667714 
0.50374755256 4.2143802933 -4.0236525716 0.73000447932 4.3146703998 -3.988301509 0.94938943915 4.4138568734 -3.9209792775 
1.1649049221 4.5245782177 -3.8593849555 1.3613181123 4.6701551205 -3.8071429788 1.5518888171 4.8233410947 -3.7550194358 
1.7445140987 4.9527028979 -3.6619548088 1.9520510821 5.0706612644 -3.5883375689 -1.9325266326 2.5204028889 -5.3477890193 
-2.0959306286 2.7087500879 -5.365801979 -2.2633102792 2.8933902522 -5.385602541 -2.4178782198 3.0885612485 -5.4083409222 
-2.5479432722 3.3001525355 -5.43684021 -2.6787178666 3.5102060499 -5.4725547247 -2.8107433098 3.7194501556 -5.5084181681 
-2.9413858908 3.9308341965 -5.5357915725 -3.0679742596 4.1429310387 -5.574396163 -3.2382620752 4.3194711085 -5.6227248669 
-3.4034421657 4.4981947511 -5.679938478 -3.5627383883 4.6713598955 -5.7644283958 -3.7260812147 4.8202216789 -5.8813013633 
-3.8851823596 4.9781299918 -5.9919891692 -4.0318882388 5.1192579924 -6.1371107474 -4.1776034972 5.267674107 -6.2758180666 
-4.3006385034 5.4063912843 -6.4435080543 -4.3993083167 5.5617470301 -6.612708705 -4.4888422999 5.7516090069 -6.7484882896 
-4.5691850661 5.9608949852 -6.8591427934 -4.6250139927 6.1476728782 -7.0152628647 -2.0326142165 2.9638917436 -6.2331597129 
-1.8379661322 2.9856981232 -6.3885193121 -1.6391598511 3.01010672 -6.5381197233 -1.4501474801 3.0433683747 -6.6983320385 
-1.259729815 3.1333976635 -6.8330014113 -1.0836211307 3.1947706356 -6.9994919203 -0.90834424086 3.2595978692 -7.1655504693 
-0.7571583047 3.3005064676 -7.3604075946 -0.60996519126 3.3440873206 -7.5577268704 -0.49002972453 3.3894289805 -7.7723419158 
-0.36913794691 3.4240836293 -7.988407261 -0.25986560906 3.4360709529 -8.212942025 -0.15574965957 3.4430170546 -8.4401239362 
-0.037148734201 3.3980559853 -8.65555913 0.11474077309 3.3523152081 -8.8487879034 0.25761539666 3.307527632 -9.0489900887 
0.37134473956 3.3170620605 -9.2714192487 0.45184428968 3.4066055838 -9.4905123337 0.52755006512 3.4859579188 -9.7151717258 
0.61963079677 3.5558990082 -9.9368232155 0.71155600796 3.6256716727 -10.158220968 -1.9618163346 3.4463146723 -7.10083102 
-2.0309726592 3.3358535308 -7.3141751996 -2.104616748 3.2322445112 -7.5294464686 -2.190188981 3.1546980797 -7.751175907 
-2.2976904794 3.0825969981 -7.9650563921 -2.3991063146 3.0081621014 -8.1810986901 -2.5152911443 2.932724715 -8.3892099249 
-2.6353777226 2.9151416721 -8.607773532 -2.7375207027 2.9036163259 -8.8356638083 -2.8064497636 2.8770738805 -9.0745032588 
-2.8451554793 2.8922226211 -9.3210238122 -2.8645235536 2.9469414014 -9.5641919285 -2.8916055665 2.9711691852 -9.8115369892 
-2.9352780296 2.950425028 -10.056817229 -2.9962578971 2.9862888521 -10.296598883 -3.0614373976 3.0026472426 -10.537397629 
-3.1480640416 3.0173237865 -10.77144981 -3.2331271899 3.0370317538 -11.005705774 -3.288509663 3.025893663 -11.249239601 
-3.320897827 3.0297427036 -11.497102853 -3.3208786737 3.0038642036 -11.745309351 -2.0235998482 3.9580476516 -7.9547512915 
-1.8641792939 4.1284428016 -8.0444763141 -1.703088157 4.2983186837 -8.1321793946 -1.5312487767 4.4435719007 -8.2411414537 
-1.3581433132 4.5892239683 -8.3475368188 -1.1862146091 4.7158958043 -8.4775166889 -1.0186464144 4.8089534404 -8.6380195752 
-0.86800983641 4.8930373924 -8.8189574385 -0.72884017182 4.9763139347 -9.0092120626 -0.59088419752 5.0655988889 -9.1976168027 
-0.45467165021 5.1541236562 -9.3876418208 -0.32760832179 5.2513809607 -9.5797249468 -0.20178605879 5.3528466093 -9.770443274 
-0.086646172337 5.4573309696 -9.9662131005 0.03316044533 5.5673355231 -10.15606929 0.1539268129 5.6761187869 -10.346021089 
0.26904779452 5.7614038547 -10.550895726 0.38126424888 5.8387279751 -10.76048687 0.52095386486 5.9122322598 -10.954352626 
0.65941290954 5.9812120167 -11.150747346 0.83217367741 6.082715558 -11.299200735 -2.0611579752 4.4358891617 -8.8240748816 
-2.2749039929 4.4474172946 -8.9532249573 -2.4981042812 4.4241463158 -9.0634070468 -2.7250734602 4.4038012478 -9.1662227557 
-2.9418091811 4.3703748547 -9.2862573487 -3.1667417949 4.3351481088 -9.3895259095 -3.3871943636 4.2952164277 -9.5004588882 
-3.6033343095 4.2456788972 -9.6159125883 -3.8152564157 4.1965541869 -9.7391026194 -4.0309626123 4.1245192607 -9.8429380958 
-4.2473437712 4.0832631956 -9.9611630135 -4.4655861722 4.0789046166 -10.083028748 -4.6819146229 4.0739012266 -10.208236445 
-4.9124821926 4.0776730423 -10.304799219 -5.1348570088 4.0688567566 -10.418692652 -5.3596202142 4.1049321565 -10.522037062 
[...]
CELL_DATA 451
SCALARS solution%20variable double
LOOKUP_TABLE default
7634.402075 7392.0087379 7142.8192002 6884.671875 6677.9360392 6463.546427 6241.8540752 6012.0495366 5829.0712763 
5639.2281895 5442.8256402 5239.1243134 5077.769711 4910.2924753 4736.9576689 4557.0952475 4415.2718873 4268.0153122 
4115.5552746 3957.2886955 3832.9810463 3703.8730767 3570.1637725 3431.3135415 3322.6114902 3209.6838836 3092.7030091 
2971.188413 2876.3073588 2777.7175864 2675.5682814 2569.4331988 2486.7254058 2400.7693562 2311.6942795 2219.1228697 
2147.0806996 2072.1967582 1994.5830447 1913.9057493 1851.1572584 1785.9221916 1718.2976494 1647.9877766 1593.2854459 
1536.4028156 1477.4240375 1416.0855192 1368.2873911 1318.5675663 1266.9987871 1213.3436408 1171.3845507 1127.7135194 
1082.392881 1035.2043251 998.05004761 959.33837325 919.1186377 877.17885008 843.73634556 808.8053939 772.42085759 
734.36174308 703.69907461 671.53233233 637.87446323 602.46984674 576.50741484 549.24698812 520.69501634 490.61994894 
458.7153393 424.56087456 387.552668 31.812436528 6752.7294655 6617.7490278 6479.9880597 6339.2648556 6195.3771104 
6048.0984942 5897.1744579 5742.3170479 5583.1984271 5419.4426849 5250.6153487 5076.209757 4895.6290615 4708.1620139 
4512.949692 4308.9386428 4094.8129769 3868.8925604 3628.9739889 670.35502391 5891.9567903 5768.9799433 5643.3559553 
5514.9034754 5383.4195596 5248.6758905 5110.4141011 4968.3399291 4822.1158221 4671.3514603 4515.5914329 4354.2989465 
4186.8338835 4012.4226127 3830.1154132 3638.7246694 3436.7320196 3222.1429601 2992.2472297 597.3554841 5130.5859582 
5019.3436464 4905.6132199 4789.2169479 4669.9549995 4547.6013937 4421.8989435 4292.5528683 4159.2226206 4021.5112748 
3878.9515275 3730.9868823 3576.9458278 3416.0055265 3247.1392844 3069.037956 2879.9874848 2677.6683406 2458.805674 
529.83218198 4459.6488323 4359.6975524 4257.4362549 4152.6937927 4045.2769175 3934.9660658 3821.5100523 3704.6193021 
3583.9570995 3459.1280908 3329.662909 3194.9971928 3054.4422753 2907.1431064 2752.0158747 2587.6518945 2412.1623585 
2222.9122851 2016.028284 467.89275291 3870.3323163 3781.0813791 3689.7104437 3596.0574013 3499.9385183 3401.1441688 
3299.4334213 3194.5270751 3086.0985706 2973.761919 2857.0553631 2735.418765 2608.1614994 2474.4154697 2333.063842 
2182.6281323 2021.0793657 1845.4996693 1651.4176072 411.52684537 3354.1412696 3274.8885861 3193.7109106 3110.4570005 
3024.9548726 2937.0075907 2846.3878838 2752.8311739 2656.0263972 2555.6036999 2451.1176022 2342.0234029 2227.6431823 
2107.1151797 1979.3153768 1842.729994 1695.2351385 1533.6845622 1353.0505155 360.60860014 2903.0286439 2833.0000815 
2761.2404435 2687.6105298 2611.9516025 2534.081319 2453.7885073 2370.8263526 2284.9033636 2195.671162 2102.7076156 
2005.4929384 1903.3748048 1795.5155919 1680.8090976 1557.741899 1424.1463859 1276.7196203 1109.9612145 314.9124885 
2509.4849666 2447.8720281 2384.715997 2319.8902936 2253.250223 2184.6291268 2113.8334136 2040.6360456 1964.767846 
1885.9056691 1803.6559225 1717.5309969 1626.9144699 1531.0077649 1428.7445317 1318.6450855 1198.5499179 1065.0807513 
912.38399368 274.13089926 2166.5867884 2112.5790057 2057.2066853 2000.3559451 1941.8963387 1881.6772757 1819.5233814 
1755.2283854 1688.5469242 1619.1833162 1546.775819 1470.8739254 1390.9045199 1306.1193855 1215.5097136 1117.658057 
1010.4606097 890.54622833 751.84208731 237.88577295 1868.009301 1820.8209437 1772.4350271 1722.7500691 1671.6496253 
1618.9990101 1564.6410316 1508.3903523 1450.0258918 1389.2803709 1325.8255615 1259.2508669 1189.0311283 1114.4761898 
1034.647731 948.21292359 853.16020963 746.1927501 621.17105415 205.7512784 1608.003627 1566.8932292 1524.73969 
1481.453379 1436.9312996 1391.0541258 1343.6823371 1294.6510913 1243.7632924 1190.7800096 1135.4068951 1077.2743468 
1015.9074871 950.67873303 880.72525526 804.80857358 721.03860287 626.26042642 514.40935969 177.25049541 1381.3456168 
1345.6311572 1309.0154825 1271.4201412 1232.7548691 1192.9149463 1151.7777413 1109.1981146 1065.0021867 1018.9786935 
970.86668528 920.33549443 866.95721092 810.1636107 749.17182547 682.85012141 609.45152472 526.00977923 426.65579017 
151.82910594 1183.250328 1152.3212971 1120.6215003 1088.0829882 1054.6274967 1020.1641214 984.58627368 947.76660587 
909.55087234 869.75130558 828.13544478 784.40966634 738.19397797 688.98164077 636.07069604 578.43901698 514.4927498 
441.48369196 353.82748652 128.72537987 1009.2438751 982.5759278 955.25716855 927.22767437 898.41835902 868.74889036 
838.12495651 806.43461335 773.54330501 739.28691583 703.46180968 665.81008718 625.99691417 583.57398828 537.91711936 
488.11120172 432.71546373 369.20869266 292.33205603 106.48131842 854.92425254 832.07148521 808.66972148 784.6674955 
760.00539291 734.61423017 708.41266001 681.30396536 653.1716775 623.87344438 593.23221036 561.02310838 526.95320371 
490.6286537 451.49816314 408.74771497 361.08266977 306.20172173 239.16639324 80.389691191 714.63614822 694.35691795 
673.56808381 652.21848572 630.24849011 607.58790442 584.15318225 559.84359936 534.53589577 508.07655684 480.27032144 
450.86238343 419.50945642 385.72977678 348.80958765 307.60829689 260.08340717 201.79198144 76.861099936 577.99493975 
552.36180261 525.58674491 497.48071276 467.79850514 436.2122996 402.26657331 365.29540105 324.25471273 277.32949856 
220.77871047 50.056216297 7719.5194359 7803.6163117 7886.8791202 7969.3346609 8051.0083803 8131.9244659 8212.1059315 
8291.5746957 8370.3516533 8448.4567408 8525.9089971 8602.7266189 8678.927012 8754.5268383 8829.54206 8901.7495516 
8973.5355517 9044.814517 9115.5988303 9185.9004077 9255.7307233 9325.1008315 9394.021388 9449.8852325 9505.5382715 
9560.9301482 9616.0657349 9670.9497705 9725.5868653 9779.9815058 9834.1380597 9865.9189024 9897.6776225 9929.3976782 
9961.0796371 9992.7240587 10024.331495 10055.902489 10087.437578 10087.436835 8964.1807877 10175.697434 11197.754831 
12010.450345 
