# vtk DataFile Version 5.1
vtk output
ASCII
DATASET UNSTRUCTURED_GRID
POINTS 474 double
0 0 -3 -0.11344901018 0.17758382911 -3.1345113591 -0.25315847539 0.33878440002 -3.2648786912 
-0.38126193464 0.50363826191 -3.4024021726 -0.5126230829 0.66576812132 -3.5400907975 -0.65843420624 0.83063257984 -3.6586607204 
-0.82297351213 0.96639713451 -3.7890248355 -0.97532665543 1.1205572503 -3.9136168835 -1.1248934303 1.2712178784 -4.0456439831 
-1.260480867 1.4416481412 -4.1684021702 -1.3678821889 1.6074581306 -4.3216079256 -1.4660695894 1.784059061 -4.4688198332 
-1.5694943891 1.9404801104 -4.6341551474 -1.6843141616 2.0801145574 -4.8068358964 -1.7920938126 2.214324268 -4.9881403376 
-1.8953148049 2.3800598251 -5.1442721788 -1.9325266326 2.5204028889 -5.3477890193 -1.973129178 2.6634701459 -5.548744719 
-1.9865147688 2.7616205381 -5.7782819197 -2.0072616269 2.8605132642 -6.0069515429 -2.0326142165 2.9638917436 -6.2331597129 
-1.9920842053 3.0592208557 -6.4606892244 -1.9658829099 3.1812169213 -6.6773235986 -1.95489032 3.3115244098 -6.8903942944 
-1.9618163346 3.4463146723 -7.10083102 -1.9595558315 3.5807523934 -7.3115948434 -1.9591600912 3.7034011527 -7.5294414069 
-1.9922335507 3.8261433401 -7.744709848 -2.0235998482 3.9580476516 -7.9547512915 -2.053410198 4.0821397433 -8.16972221 
-2.0922570198 4.2101350542 -8.380928566 -2.0673262565 4.3390293584 -8.5936836256 -2.0611579752 4.4358891617 -8.8240748816 
-2.0457609566 4.5389463916 -9.0513239502 -2.0376118219 4.6474567449 -9.2763997037 -2.0620327306 4.7344755807 -9.5094905474 
-2.0678249667 4.7919692102 -9.7527207523 -2.0538188065 4.7894724803 -10.002315612 -2.061454029 4.7954964511 -10.25212637 
-2.0748719743 4.7792135014 -10.501234428 -2.0879807121 4.7450832286 -10.748546549 -2.1011430636 4.7103243177 -10.995768253 
-2.1002295418 4.7008537725 -11.245587136 -2.1048346881 4.6894878057 -11.495286169 -2.0641472069 4.6880886783 -11.741949039 
-2.0210511199 4.6768675797 -11.987950694 -1.9835084387 4.6483785121 -12.233468351 -1.9506827239 4.6230643942 -12.480007736 
-1.9004712217 4.6381689642 -12.724447211 -1.8375331244 4.6537107888 -12.96589544 -1.7745908329 4.6759472614 -13.206818265 
-1.7324654219 4.637703043 -13.450257845 -1.6671038275 4.5609504363 -13.679030438 -1.598399743 4.4811403079 -13.905768376 
-1.5362405788 4.3949975328 -14.132077148 -1.4802902991 4.3079524624 -14.359657292 -1.4132617365 4.2082396067 -14.578893508 
-1.3346237404 4.1025622853 -14.791374964 -1.2639046148 4.0215870271 -15.017077895 -1.1811068059 3.9440623254 -15.239865784 
-1.0986307142 3.8389919159 -15.45118995 -0.9637992344 3.7108445705 -15.618219079 -0.83607035007 3.5887696699 -15.795089231 
-0.67316557472 3.4694079904 -15.942448736 -0.49469270494 3.3540019539 -16.074087946 -0.32610371771 3.2396122859 -16.218976721 
-0.14820477506 3.1356714575 -16.360568636 0.012364935668 3.0233302117 -16.515800116 0.1549159304 2.9000749565 -16.680078405 
0.27000396814 2.7652117596 -16.856335778 0.3829086188 2.6314831379 -17.034855232 0.49747072388 2.4976228367 -17.212216287 
0.60083379182 2.4004242314 -17.418052405 0.66797056282 2.2936634265 -17.633910656 0.75017747883 2.1834571348 -17.842708636 
0.82913521304 2.0737203209 -18.053002496 0.84139766799 2.0604437881 -18.08156333 -0.5126230829 0.66576812132 -3.5400907975 
-0.52277406038 0.77956108233 -3.7624601292 -0.53449030145 0.89788545023 -3.982373916 -0.53515452505 1.0082199251 -4.2067081811 
-0.53644590475 1.1144897642 -4.4329935178 -0.53696454607 1.2507070137 -4.6426231721 -0.51878168185 1.3625180934 -4.8654856093 
-0.50273855675 1.4613674127 -5.0945520412 -0.49082816941 1.5488159746 -5.328455636 -0.53649707025 1.6336061495 -5.5591610277 
-0.58531137867 1.7180366746 -5.7893536638 -0.67092791921 1.7968155302 -6.0106310912 -0.74962718774 1.8695191762 -6.2365085027 
-0.83361798078 1.9305568324 -6.4639287111 -0.91700232593 1.9931029055 -6.6911621587 -0.9753928223 2.0369035191 -6.930268947 
-1.0475750197 2.0677300162 -7.1676282894 -1.1009443958 2.0963864931 -7.4101783173 -1.0913733021 2.1254249614 -7.6583015962 
-1.0949643175 2.1422303757 -7.9077102622 -1.0664266342 2.165504346 -8.1548653099 -1.1248934303 1.2712178784 -4.0456439831 
-1.3701105494 1.2938911888 -4.0025802454 -1.6157087444 1.3095406912 -3.9585732041 -1.8617989566 1.2971902892 -3.9162993943 
-2.1048102068 1.2871864009 -3.8584594899 -2.3536918581 1.2700404026 -3.8422133105 -2.6027259385 1.2509731012 -3.853097466 
-2.8484396668 1.2518422052 -3.8991844311 -3.0916583036 1.2465957369 -3.9567793032 -3.3338077351 1.2274596438 -4.0159186538 
-3.5641759617 1.2403219499 -4.1121737381 -3.7912733809 1.2235452575 -4.2153498243 -4.0204382622 1.2355273717 -4.3145460244 
-4.2478450942 1.2493184055 -4.4174826076 -4.4834828557 1.2739945955 -4.4972693924 -4.7217834282 1.3027450896 -4.567171082 
-4.9607669071 1.3311838138 -4.6348330046 -5.199558466 1.3700473821 -4.6978267701 -5.4302756926 1.4046385181 -4.7876767264 
-5.6506628044 1.4263130494 -4.9036928272 -5.8669179291 1.4821841882 -5.0156676629 -1.5694943891 1.9404801104 -4.6341551474 
-1.4895185985 2.1771164887 -4.6238063594 -1.381831314 2.3982210442 -4.5789039731 -1.2633369749 2.613011121 -4.5306928281 
-1.1462127147 2.8284302862 -4.4819435621 -1.0110186488 3.0229077887 -4.4019369025 -0.87475765502 3.2163027526 -4.3211202613 
-0.70885179817 3.3900448113 -4.2519180669 -0.54644443097 3.5633239055 -4.1738270778 -0.35505468441 3.7110359584 -4.1101787129 
-0.1483501848 3.8487343787 -4.0816761715 0.067808343634 3.9732436541 -4.0651555501 0.28749992486 4.0913120878 -4.0479667714 
0.50374755256 4.2143802933 -4.0236525716 0.73000447932 4.3146703998 -3.988301509 0.94938943915 4.4138568734 -3.9209792775 
1.1649049221 4.5245782177 -3.8593849555 1.3613181123 4.6701551205 -3.8071429788 1.5518888171 4.8233410947 -3.7550194358 
1.7445140987 4.9527028979 -3.6619548088 1.9520510821 5.0706612644 -3.5883375689 -1.9325266326 2.5204028889 -5.3477890193 
-2.0959306286 2.7087500879 -5.365801979 -2.2633102792 2.8933902522 -5.385602541 -2.4178782198 3.0885612485 -5.4083409222 
-2.5479432722 3.3001525355 -5.43684021 -2.6787178666 3.5102060499 -5.4725547247 -2.8107433098 3.7194501556 -5.5084181681 
-2.9413858908 3.9308341965 -5.5357915725 -3.0679742596 4.1429310387 -5.574396163 -3.2382620752 4.3194711085 -5.6227248669 
-3.4034421657 4.4981947511 -5.679938478 -3.5627383883 4.6713598955 -5.7644283958 -3.7260812147 4.8202216789 -5.8813013633 
-3.8851823596 4.9781299918 -5.9919891692 -4.0318882388 5.1192579924 -6.1371107474 -4.1776034972 5.267674107 -6.2758180666 
-4.3006385034 5.4063912843 -6.4435080543 -4.3993083167 5.5617470301 -6.612708705 -4.4888422999 5.7516090069 -6.7484882896 
-4.5691850661 5.9608949852 -6.8591427934 -4.6250139927 6.1476728782 -7.0152628647 -2.0326142165 2.9638917436 -6.2331597129 
-1.8379661322 2.9856981232 -6.3885193121 -1.6391598511 3.01010672 -6.5381197233 -1.4501474801 3.0433683747 -6.6983320385 
-1.259729815 3.1333976635 -6.8330014113 -1.0836211307 3.1947706356 -6.9994919203 -0.90834424086 3.2595978692 -7.1655504693 
-0.7571583047 3.3005064676 -7.3604075946 -0.60996519126 3.3440873206 -7.5577268704 -0.49002972453 3.3894289805 -7.7723419158 
-0.36913794691 3.4240836293 -7.988407261 -0.25986560906 3.4360709529 -8.212942025 -0.15574965957 3.4430170546 -8.4401239362 
-0.037148734201 3.3980559853 -8.65555913 0.11474077309 3.3523152081 -8.8487879034 0.25761539666 3.307527632 -9.0489900887 
0.37134473956 3.3170620605 -9.2714192487 0.45184428968 3.4066055838 -9.4905123337 0.52755006512 3.4859579188 -9.7151717258 
0.61963079677 3.5558990082 -9.9368232155 0.71155600796 3.6256716727 -10.158220968 -1.9618163346 3.4463146723 -7.10083102 
-2.0309726592 3.3358535308 -7.3141751996 -2.104616748 3.2322445112 -7.5294464686 -2.190188981 3.1546980797 -7.751175907 
-2.2976904794 3.0825969981 -7.9650563921 -2.3991063146 3.0081621014 -8.1810986901 -2.5152911443 2.932724715 -8.3892099249 
-2.6353777226 2.9151416721 -8.607773532 -2.7375207027 2.9036163259 -8.8356638083 -2.8064497636 2.8770738805 -9.0745032588 
-2.8451554793 2.8922226211 -9.3210238122 -2.8645235536 2.9469414014 -9.5641919285 -2.8916055665 2.9711691852 -9.8115369892 
-2.9352780296 2.950425028 -10.056817229 -2.9962578971 2.9862888521 -10.296598883 -3.0614373976 3.0026472426 -10.537397629 
-3.1480640416 3.0173237865 -10.77144981 -3.2331271899 3.0370317538 -11.005705774 -3.288509663 3.025893663 -11.249239601 
-3.320897827 3.0297427036 -11.497102853 -3.3208786737 3.0038642036 -11.745309351 -2.0235998482 3.9580476516 -7.9547512915 
-1.8641792939 4.1284428016 -8.0444763141 -1.703088157 4.2983186837 -8.1321793946 -1.5312487767 4.4435719007 -8.2411414537 
-1.3581433132 4.5892239683 -8.3475368188 -1.1862146091 4.7158958043 -8.4775166889 -1.0186464144 4.8089534404 -8.6380195752 
-0.86800983641 4.8930373924 -8.8189574385 -0.72884017182 4.9763139347 -9.0092120626 -0.59088419752 5.0655988889 -9.1976168027 
-0.45467165021 5.1541236562 -9.3876418208 -0.32760832179 5.2513809607 -9.5797249468 -0.20178605879 5.3528466093 -9.770443274 
-0.086646172337 5.4573309696 -9.9662131005 0.03316044533 5.5673355231 -10.15606929 0.1539268129 5.6761187869 -10.346021089 
0.26904779452 5.7614038547 -10.550895726 0.38126424888 5.8387279751 -10.76048687 0.52095386486 5.9122322598 -10.954352626 
0.65941290954 5.9812120167 -11.150747346 0.83217367741 6.082715558 -11.299200735 -2.0611579752 4.4358891617 -8.8240748816 
-2.2749039929 4.4474172946 -8.9532249573 -2.4981042812 4.4241463158 -9.0634070468 -2.7250734602 4.4038012478 -9.1662227557 
-2.9418091811 4.3703748547 -9.2862573487 -3.1667417949 4.3351481088 -9.3895259095 -3.3871943636 4.2952164277 -9.5004588882 
-3.6033343095 4.2456788972 -9.6159125883 -3.8152564157 4.1965541869 -9.7391026194 -4.0309626123 4.1245192607 -9.8429380958 
-4.2473437712 4.0832631956 -9.9611630135 -4.4655861722 4.0789046166 -10.083028748 -4.6819146229 4.0739012266 -10.208236445 
-4.9124821926 4.0776730423 -10.304799219 -5.1348570088 4.0688567566 -10.418692652 -5.3596202142 4.1049321565 -10.522037062 
[...]
CELL_DATA 451
SCALARS solution%20variable double
LOOKUP_TABLE default
7634.6041658 7392.2076758 7143.014906 6884.8642761 6678.1256884 6463.7332482 6242.0379957 6012.2304908 5829.2498525 
5639.4043229 5442.9992683 5239.2953829 5077.9388388 4910.4596129 4737.1227693 4557.2582756 4415.4334825 4268.1754486 
4115.7139263 3957.445853 3833.1373669 3704.028564 3570.3184287 3431.4673908 3322.7652051 3209.8375051 3092.8565754 
2971.3419915 2876.4616351 2777.8726483 2675.7242115 2569.5901183 2486.8840094 2400.9297879 2311.8566751 2219.2874148 
2147.2480873 2072.3671972 1994.7567311 1914.0829424 1851.3386235 1786.1080068 1718.488174 1648.1833478 1593.4866441 
1536.6099848 1477.637493 1416.3056698 1368.5146248 1318.8022726 1267.2413131 1213.594441 1171.6436336 1127.9812721 
1082.6696291 1035.4905114 998.3449974 959.642399 919.43197023 877.50184307 844.0671178 809.14401986 772.76730579 
734.716095 704.0583012 671.89606355 638.24219592 602.84115834 576.88221981 549.62438706 521.073909 490.99922365 
459.09391951 424.93781014 387.92732562 31.829665063 6752.9204599 6617.938546 6480.1760285 6339.4512013 6195.5617586 
6048.2813703 5897.3554874 5742.4961571 5583.3755434 5419.6177378 5250.7882715 5076.3804882 4895.7975474 4708.3282124 
4513.1135782 4309.100217 4094.9722775 3869.0496845 3629.1291266 670.37196444 5892.1362691 5769.1578658 5643.5322368 
5515.0780298 5383.5922994 5248.8467271 5110.5829448 4968.5066898 4822.2804096 4671.5137851 4515.7514075 4354.456487 
4186.9889124 4012.5750622 3830.2652318 3638.8718308 3436.8765386 3222.2849183 2992.3868232 597.37229943 5130.755508 
5019.5115837 4905.7794478 4789.3813673 4670.1175086 4547.7618888 4422.0573184 4292.709015 4159.3764294 4021.6626349 
3879.100328 3731.1330134 3577.0891833 3416.1460076 3247.2768054 3069.1724544 2880.1189393 2677.7968026 2458.9313301 
529.84890182 4459.8103209 4359.8573961 4257.5943436 4152.8500131 4045.4311529 3935.1181959 3821.6599533 3704.7668465 
3584.1021563 3459.2705257 3329.8025849 3195.1339709 3054.5760166 2907.2736752 2752.1431439 2587.7757556 2412.2827403 
2223.0291909 2016.1418701 467.90945393 3870.4879371 3781.235344 3689.8626282 3596.2076766 3500.0867509 3401.2902206 
3299.5771488 3194.6683295 3086.2371974 2973.897758 2857.1882481 2735.5485247 2608.2879578 2474.5384486 2333.1831655 
2182.7436354 2021.1909131 1845.6071954 1651.5212106 411.54366634 3354.2936054 3275.0392737 3193.8598088 3110.6039625 
3025.0997459 2937.1502164 2846.5280962 2752.9687999 2656.1612557 2555.7356013 2451.2463477 2342.1487839 2227.7649808 
2107.2331687 1979.4293231 1842.8396653 1695.3403194 1533.7850947 1353.1464068 360.62575924 2903.180752 2833.1505658 
2761.3891422 2687.7572744 2612.0962172 2534.2236201 2453.9283024 2370.9634396 2285.0375298 2195.8021829 2102.8352538 
2005.616942 1903.4949061 1795.6315065 1680.9205248 1557.8485253 1424.2478971 1276.8157381 1110.051812 314.93029992 
2509.6404833 2448.0259649 2384.8681658 2320.040498 2253.3982578 2184.7747766 2113.9764523 2040.7762345 1964.904933 
1886.0393865 1803.785985 1717.6570992 1627.0362838 1531.1249363 1428.8566775 1318.7517929 1198.6507495 1065.1752739 
912.47189152 274.14980417 2166.7500369 2112.7407491 2057.3667006 2000.5139989 1942.0521865 1881.8306603 1819.6740319 
1755.3760154 1688.6912297 1619.3239732 1546.9124805 1471.0062175 1391.0320369 1306.2416846 1215.6263076 1117.7684073 
1010.5641224 890.64226799 751.93008489 237.90636594 1868.1853711 1820.99564 1772.6080789 1722.9211925 1671.818522 
1619.1653661 1564.8045151 1508.5506117 1450.1825529 1389.4330336 1325.9737958 1259.3942067 1189.1690651 1114.6081633 
1034.7731166 948.33101767 853.27022075 746.2937851 621.26218821 205.77433207 1608.1983715 1567.0868388 1524.9318284 
1481.6436925 1437.1194159 1391.2396519 1343.8648572 1294.8301637 1243.9384461 1190.9507396 1135.5726566 1077.4345479 
1016.0614785 950.82579428 880.86458694 804.9392632 721.15959051 626.3704658 514.50703327 177.27699707 1381.5654476 
1345.8502822 1309.2334751 1271.6365514 1232.9692219 1193.1267392 1151.986441 1109.4031538 1065.2029585 1019.1745463 
971.05691404 920.51934421 867.13385171 810.33211879 749.33115672 682.99907221 609.5886737 526.13340335 426.76379127 
151.86023441 1183.5016598 1152.5726708 1120.8723661 1088.3327643 1054.8755664 1020.4098302 984.82892482 948.005472 
909.78517507 869.98020798 828.35804139 784.62496986 738.40090097 689.17896993 636.25705447 578.61280715 514.65206335 
441.62616391 353.95009026 128.76239083 1009.5319824 982.86533144 955.54717418 927.51754396 898.70730763 869.0360822 
838.40950011 806.71555554 773.81962329 739.55750851 703.72548292 666.06553748 626.2427041 583.80851181 538.13855043 
488.31741427 432.90390082 369.37614068 292.47426601 106.52499231 855.25156074 832.40235798 809.00327787 785.00279173 
760.3414182 734.94990166 708.74681666 681.63536026 653.49896828 624.19518081 593.54681791 561.32886618 527.2482138 
490.91079697 451.76503358 408.99651702 361.31004939 306.40347464 239.33699605 80.437335566 714.99668274 694.72266921 
673.93790061 652.59112381 630.62260564 607.96204601 584.52578116 560.21295714 534.90016824 508.43373291 480.61819427 
451.19850973 419.83109713 386.03380622 349.09234648 307.86533579 260.30899387 201.97803021 76.923787896 578.36466426 
552.7283942 525.94844235 497.8356023 468.14449723 436.54709831 402.5876357 365.59988536 324.53942361 277.59089459 
221.01344297 50.094438314 7719.7226324 7803.8205313 7887.0842823 7969.5406865 8051.215192 8132.1319882 8212.3140903 
8291.7834185 8370.5608691 8448.6663799 8526.1189913 8602.9369014 8679.1375171 8754.7375018 8829.7528189 8901.9603849 
8973.7463954 9045.0253101 9115.809513 9186.1109214 9255.9410104 9325.3108356 9394.2310537 9450.0947749 9505.7476278 
9561.139258 9616.2745389 9671.1582105 9725.7948839 9780.1890468 9834.3450675 9866.1257769 9897.8842997 9929.6040954 
9961.2857322 9992.9297704 10024.536762 10056.107253 10087.641778 10087.641038 8964.3890874 10175.890668 11197.934716 
12010.618 
