# vtk DataFile Version 5.1
vtk output
ASCII
DATASET UNSTRUCTURED_GRID
POINTS 474 double
0 0 -3 -0.11344901018 0.17758382911 -3.1345113591 -0.25315847539 0.33878440002 -3.2648786912 
-0.38126193464 0.50363826191 -3.4024021726 -0.5126230829 0.66576812132 -3.5400907975 -0.65843420624 0.83063257984 -3.6586607204 
-0.82297351213 0.96639713451 -3.7890248355 -0.97532665543 1.1205572503 -3.9136168835 -1.1248934303 1.2712178784 -4.0456439831 
-1.260480867 1.4416481412 -4.1684021702 -1.3678821889 1.6074581306 -4.3216079256 -1.4660695894 1.784059061 -4.4688198332 
-1.5694943891 1.9404801104 -4.6341551474 -1.6843141616 2.0801145574 -4.8068358964 -1.7920938126 2.214324268 -4.9881403376 
-1.8953148049 2.3800598251 -5.1442721788 -1.9325266326 2.5204028889 -5.3477890193 -1.973129178 2.6634701459 -5.548744719 
-1.9865147688 2.7616205381 -5.7782819197 -2.0072616269 2.8605132642 -6.0069515429 -2.0326142165 2.9638917436 -6.2331597129 
-1.9920842053 3.0592208557 -6.4606892244 -1.9658829099 3.1812169213 -6.6773235986 -1.95489032 3.3115244098 -6.8903942944 
-1.9618163346 3.4463146723 -7.10083102 -1.9595558315 3.5807523934 -7.3115948434 -1.9591600912 3.7034011527 -7.5294414069 
-1.9922335507 3.8261433401 -7.744709848 -2.0235998482 3.9580476516 -7.9547512915 -2.053410198 4.0821397433 -8.16972221 
-2.0922570198 4.2101350542 -8.380928566 -2.0673262565 4.3390293584 -8.5936836256 -2.0611579752 4.4358891617 -8.8240748816 
-2.0457609566 4.5389463916 -9.0513239502 -2.0376118219 4.6474567449 -9.2763997037 -2.0620327306 4.7344755807 -9.5094905474 
-2.0678249667 4.7919692102 -9.7527207523 -2.0538188065 4.7894724803 -10.002315612 -2.061454029 4.7954964511 -10.25212637 
-2.0748719743 4.7792135014 -10.501234428 -2.0879807121 4.7450832286 -10.748546549 -2.1011430636 4.7103243177 -10.995768253 
-2.1002295418 4.7008537725 -11.245587136 -2.1048346881 4.6894878057 -11.495286169 -2.0641472069 4.6880886783 -11.741949039 
-2.0210511199 4.6768675797 -11.987950694 -1.9835084387 4.6483785121 -12.233468351 -1.9506827239 4.6230643942 -12.480007736 
-1.9004712217 4.6381689642 -12.724447211 -1.8375331244 4.6537107888 -12.96589544 -1.7745908329 4.6759472614 -13.206818265 
-1.7324654219 4.637703043 -13.450257845 -1.6671038275 4.5609504363 -13.679030438 -1.598399743 4.4811403079 -13.905768376 
-1.5362405788 4.3949975328 -14.132077148 -1.4802902991 4.3079524624 -14.359657292 -1.4132617365 4.2082396067 -14.578893508 
-1.3346237404 4.1025622853 -14.791374964 -1.2639046148 4.0215870271 -15.017077895 -1.1811068059 3.9440623254 -15.239865784 
-1.0986307142 3.8389919159 -15.45118995 -0.9637992344 3.7108445705 -15.618219079 -0.83607035007 3.5887696699 -15.795089231 
-0.67316557472 3.4694079904 -15.942448736 -0.49469270494 3.3540019539 -16.074087946 -0.32610371771 3.2396122859 -16.218976721 
-0.14820477506 3.1356714575 -16.360568636 0.012364935668 3.0233302117 -16.515800116 0.1549159304 2.9000749565 -16.680078405 
0.27000396814 2.7652117596 -16.856335778 0.3829086188 2.6314831379 -17.034855232 0.49747072388 2.4976228367 -17.212216287 
0.60083379182 2.4004242314 -17.418052405 0.66797056282 2.2936634265 -17.633910656 0.75017747883 2.1834571348 -17.842708636 
0.82913521304 2.0737203209 -18.053002496 0.84139766799 2.0604437881 -18.08156333 -0.5126230829 0.66576812132 -3.5400907975 
-0.52277406038 0.77956108233 -3.7624601292 -0.53449030145 0.89788545023 -3.982373916 -0.53515452505 1.0082199251 -4.2067081811 
-0.53644590475 1.1144897642 -4.4329935178 -0.53696454607 1.2507070137 -4.6426231721 -0.51878168185 1.3625180934 -4.8654856093 
-0.50273855675 1.4613674127 -5.0945520412 -0.49082816941 1.5488159746 -5.328455636 -0.53649707025 1.6336061495 -5.5591610277 
-0.58531137867 1.7180366746 -5.7893536638 -0.67092791921 1.7968155302 -6.0106310912 -0.74962718774 1.8695191762 -6.2365085027 
-0.83361798078 1.9305568324 -6.4639287111 -0.91700232593 1.9931029055 -6.6911621587 -0.9753928223 2.0369035191 -6.930268947 
-1.0475750197 2.0677300162 -7.1676282894 -1.1009443958 2.0963864931 -7.4101783173 -1.0913733021 2.1254249614 -7.6583015962 
-1.0949643175 2.1422303757 -7.9077102622 -1.0664266342 2.165504346 -8.1548653099 -1.1248934303 1.2712178784 -4.0456439831 
-1.3701105494 1.2938911888 -4.0025802454 -1.6157087444 1.3095406912 -3.9585732041 -1.8617989566 1.2971902892 -3.9162993943 
-2.1048102068 1.2871864009 -3.8584594899 -2.3536918581 1.2700404026 -3.8422133105 -2.6027259385 1.2509731012 -3.853097466 
-2.8484396668 1.2518422052 -3.8991844311 -3.0916583036 1.2465957369 -3.9567793032 -3.3338077351 1.2274596438 -4.0159186538 
-3.5641759617 1.2403219499 -4.1121737381 -3.7912733809 1.2235452575 -4.2153498243 -4.0204382622 1.2355273717 -4.3145460244 
-4.2478450942 1.2493184055 -4.4174826076 -4.4834828557 1.2739945955 -4.4972693924 -4.7217834282 1.3027450896 -4.567171082 
-4.9607669071 1.3311838138 -4.6348330046 -5.199558466 1.3700473821 -4.6978267701 -5.4302756926 1.4046385181 -4.7876767264 
-5.6506628044 1.4263130494 -4.9036928272 -5.8669179291 1.4821841882 -5.0156676629 -1.5694943891 1.9404801104 -4.6341551474 
-1.4895185985 2.1771164887 -4.6238063594 -1.381831314 2.3982210442 -4.5789039731 -1.2633369749 2.613011121 -4.5306928281 
-1.1462127147 2.8284302862 -4.4819435621 -1.0110186488 3.0229077887 -4.4019369025 -0.87475765502 3.2163027526 -4.3211202613 
-0.70885179817 3.3900448113 -4.2519180669 -0.54644443097 3.5633239055 -4.1738270778 -0.35505468441 3.7110359584 -4.1101787129 
-0.1483501848 3.8487343787 -4.0816761715 0.067808343634 3.9732436541 -4.0651555501 0.28749992486 4.0913120878 -4.0479667714 
0.50374755256 4.2143802933 -4.0236525716 0.73000447932 4.3146703998 -3.988301509 0.94938943915 4.4138568734 -3.9209792775 
1.1649049221 4.5245782177 -3.8593849555 1.3613181123 4.6701551205 -3.8071429788 1.5518888171 4.8233410947 -3.7550194358 
1.7445140987 4.9527028979 -3.6619548088 1.9520510821 5.0706612644 -3.5883375689 -1.9325266326 2.5204028889 -5.3477890193 
-2.0959306286 2.7087500879 -5.365801979 -2.2633102792 2.8933902522 -5.385602541 -2.4178782198 3.0885612485 -5.4083409222 
-2.5479432722 3.3001525355 -5.43684021 -2.6787178666 3.5102060499 -5.4725547247 -2.8107433098 3.7194501556 -5.5084181681 
-2.9413858908 3.9308341965 -5.5357915725 -3.0679742596 4.1429310387 -5.574396163 -3.2382620752 4.3194711085 -5.6227248669 
-3.4034421657 4.4981947511 -5.679938478 -3.5627383883 4.6713598955 -5.7644283958 -3.7260812147 4.8202216789 -5.8813013633 
-3.8851823596 4.9781299918 -5.9919891692 -4.0318882388 5.1192579924 -6.1371107474 -4.1776034972 5.267674107 -6.2758180666 
-4.3006385034 5.4063912843 -6.4435080543 -4.3993083167 5.5617470301 -6.612708705 -4.4888422999 5.7516090069 -6.7484882896 
-4.5691850661 5.9608949852 -6.8591427934 -4.6250139927 6.1476728782 -7.0152628647 -2.0326142165 2.9638917436 -6.2331597129 
-1.8379661322 2.9856981232 -6.3885193121 -1.6391598511 3.01010672 -6.5381197233 -1.4501474801 3.0433683747 -6.6983320385 
-1.259729815 3.1333976635 -6.8330014113 -1.0836211307 3.1947706356 -6.9994919203 -0.90834424086 3.2595978692 -7.1655504693 
-0.7571583047 3.3005064676 -7.3604075946 -0.60996519126 3.3440873206 -7.5577268704 -0.49002972453 3.3894289805 -7.7723419158 
-0.36913794691 3.4240836293 -7.988407261 -0.25986560906 3.4360709529 -8.212942025 -0.15574965957 3.4430170546 -8.4401239362 
-0.037148734201 3.3980559853 -8.65555913 0.11474077309 3.3523152081 -8.8487879034 0.25761539666 3.307527632 -9.0489900887 
0.37134473956 3.3170620605 -9.2714192487 0.45184428968 3.4066055838 -9.4905123337 0.52755006512 3.4859579188 -9.7151717258 
0.61963079677 3.5558990082 -9.9368232155 0.71155600796 3.6256716727 -10.158220968 -1.9618163346 3.4463146723 -7.10083102 
-2.0309726592 3.3358535308 -7.3141751996 -2.104616748 3.2322445112 -7.5294464686 -2.190188981 3.1546980797 -7.751175907 
-2.2976904794 3.0825969981 -7.9650563921 -2.3991063146 3.0081621014 -8.1810986901 -2.5152911443 2.932724715 -8.3892099249 
-2.6353777226 2.9151416721 -8.607773532 -2.7375207027 2.9036163259 -8.8356638083 -2.8064497636 2.8770738805 -9.0745032588 
-2.8451554793 2.8922226211 -9.3210238122 -2.8645235536 2.9469414014 -9.5641919285 -2.8916055665 2.9711691852 -9.8115369892 
-2.9352780296 2.950425028 -10.056817229 -2.9962578971 2.9862888521 -10.296598883 -3.0614373976 3.0026472426 -10.537397629 
-3.1480640416 3.0173237865 -10.77144981 -3.2331271899 3.0370317538 -11.005705774 -3.288509663 3.025893663 -11.249239601 
-3.320897827 3.0297427036 -11.497102853 -3.3208786737 3.0038642036 -11.745309351 -2.0235998482 3.9580476516 -7.9547512915 
-1.8641792939 4.1284428016 -8.0444763141 -1.703088157 4.2983186837 -8.1321793946 -1.5312487767 4.4435719007 -8.2411414537 
-1.3581433132 4.5892239683 -8.3475368188 -1.1862146091 4.7158958043 -8.4775166889 -1.0186464144 4.8089534404 -8.6380195752 
-0.86800983641 4.8930373924 -8.8189574385 -0.72884017182 4.9763139347 -9.0092120626 -0.59088419752 5.0655988889 -9.1976168027 
-0.45467165021 5.1541236562 -9.3876418208 -0.32760832179 5.2513809607 -9.5797249468 -0.20178605879 5.3528466093 -9.770443274 
-0.086646172337 5.4573309696 -9.9662131005 0.03316044533 5.5673355231 -10.15606929 0.1539268129 5.6761187869 -10.346021089 
0.26904779452 5.7614038547 -10.550895726 0.38126424888 5.8387279751 -10.76048687 0.52095386486 5.9122322598 -10.954352626 
0.65941290954 5.9812120167 -11.150747346 0.83217367741 6.082715558 -11.299200735 -2.0611579752 4.4358891617 -8.8240748816 
-2.2749039929 4.4474172946 -8.9532249573 -2.4981042812 4.4241463158 -9.0634070468 -2.7250734602 4.4038012478 -9.1662227557 
-2.9418091811 4.3703748547 -9.2862573487 -3.1667417949 4.3351481088 -9.3895259095 -3.3871943636 4.2952164277 -9.5004588882 
-3.6033343095 4.2456788972 -9.6159125883 -3.8152564157 4.1965541869 -9.7391026194 -4.0309626123 4.1245192607 -9.8429380958 
-4.2473437712 4.0832631956 -9.9611630135 -4.4655861722 4.0789046166 -10.083028748 -4.6819146229 4.0739012266 -10.208236445 
-4.9124821926 4.0776730423 -10.304799219 -5.1348570088 4.0688567566 -10.418692652 -5.3596202142 4.1049321565 -10.522037062 
[...]
CELL_DATA 451
SCALARS solution%20variable double
LOOKUP_TABLE default
7634.7118464 7392.3136762 7143.1191839 6884.9667928 6678.2267384 6463.832791 6242.1359924 6012.3269065 5829.3450006 
5639.4981689 5443.0917787 5239.3865294 5078.0289498 4910.5486627 4737.2107326 4557.3451339 4415.5195761 4268.2607637 
4115.798449 3957.5295782 3833.2206445 3704.1113958 3570.4008158 3431.5493459 3322.8470862 3209.9193339 3092.9383721 
2971.4237918 2876.5438038 2777.9552318 2675.8072536 2569.6736833 2486.9684669 2401.0152141 2311.9431421 2219.3750208 
2147.3372011 2072.4579293 1994.8491854 1914.1772562 1851.4351505 1786.2068945 1718.5895596 1648.2874098 1593.593691 
1536.7201987 1477.7510407 1416.422768 1368.6354791 1318.9270892 1267.3702755 1213.7277898 1171.7813729 1128.1236064 
1082.8167304 1035.6426136 998.50174237 959.80395147 919.59845158 877.67343972 844.242833 809.32389201 772.95131708 
734.90428748 704.24907298 672.08921774 638.43746506 603.03831763 577.08122799 549.82476683 521.27507646 491.20058871 
459.29491043 425.13792182 388.12622033 31.838707662 6753.0222271 6618.0395267 6480.2761837 6339.5504916 6195.6601445 
6048.378812 5897.4519454 5742.5915918 5583.4699163 5419.7110114 5250.8804101 5076.471459 4895.8873219 4708.4167682 
4513.200902 4309.1863089 4095.0571581 3869.1334055 3629.2117892 670.38099078 5892.2318987 5769.2526663 5643.626163 
5515.1710358 5383.6843386 5248.9377522 5110.6729082 4968.5955434 4822.3681052 4671.6002752 4515.8366454 4354.5404281 
4187.0715152 4012.6562908 3830.3450586 3638.9502419 3436.9535418 3222.3605571 2992.4612021 597.3812589 5130.8458448 
5019.6010614 4905.8680148 4789.4689706 4670.2040943 4547.8474014 4422.1417015 4292.792211 4159.4583797 4021.7432806 
3879.1796099 3731.2108731 3577.1655643 3416.2208571 3247.3500777 3069.2441164 2880.1889796 2677.8652485 2458.9982812 
529.85781016 4459.8963589 4359.9425578 4257.6785703 4152.9332445 4045.5133268 3935.1992482 3821.739818 3704.8454557 
3584.1794403 3459.3464127 3329.8770021 3195.2068442 3054.6472721 2907.3432405 2752.2109513 2587.8417473 2412.3468784 
2223.0914771 2016.2023877 467.91835188 3870.5708436 3781.3173685 3689.9437042 3596.2877356 3500.1657217 3401.3680295 
3299.6537195 3194.7435827 3086.311051 2973.9701264 2857.2590429 2735.6176545 2608.3553289 2474.6039661 2333.2467356 
2182.8051703 2021.2503407 1845.6644807 1651.5764063 411.55262764 3354.3747544 3275.1195448 3193.9391267 3110.6822491 
3025.1769198 2937.2261931 2846.6027874 2753.0421134 2656.2330951 2555.8058656 2451.3149308 2342.2155749 2227.8298634 
2107.2960221 1979.4900231 1842.898088 1695.3963501 1533.8386494 1353.1974893 360.63489987 2903.2617691 2833.2307181 
2761.4683435 2687.835435 2612.1732434 2534.2994142 2454.0027617 2371.0364566 2285.1089912 2195.8719692 2102.9032384 
2005.6829908 1903.5588764 1795.693247 1680.9798753 1557.9053188 1424.3019662 1276.8669347 1110.1000684 314.93978683 
2509.7233013 2448.1079417 2384.9492012 2320.1204874 2253.4770919 2184.8523407 2114.0526259 2040.8508907 1964.9779374 
1886.1105965 1803.8552488 1717.7242541 1627.1011552 1531.1873354 1428.9164005 1318.8086197 1198.7044474 1065.2256122 
912.51870202 274.15987176 2166.8369527 2112.8268637 2057.4518953 2000.5981494 1942.1351625 1881.912325 1819.7542411 
1755.4546165 1688.7680609 1619.398862 1546.9852422 1471.0766528 1391.0999301 1306.3067997 1215.6883854 1117.8271611 
1010.6192359 890.6934028 751.97693819 237.91733001 1868.2790873 1821.0886251 1772.7001888 1723.012276 1671.9084205 
1619.2539122 1564.8915324 1508.635913 1450.2659391 1389.5142918 1326.0526969 1259.4705029 1189.2424856 1114.6784097 
1034.8398566 948.39387686 853.32877783 746.34756471 621.31069818 205.7866028 1608.3019937 1567.1898572 1525.0340638 
1481.744957 1437.2195113 1391.3383692 1343.961975 1294.9254471 1244.0316444 1191.0415841 1135.6608576 1077.5197903 
1016.1434169 950.90404527 880.93872527 805.00880337 721.22396859 626.42901875 514.55900695 177.29109825 1381.6823754 
1345.9668342 1309.3494243 1271.7516586 1233.0832346 1193.23939 1152.0974465 1109.5122119 1065.3097468 1019.278718 
971.15809434 920.61713157 867.22780472 810.42174619 749.41590323 683.07829773 609.66162234 526.19915883 426.82123787 
151.87679074 1183.63529 1152.706322 1121.0057461 1088.4655637 1055.0074575 1020.540465 984.95793308 948.13246703 
909.90974313 870.10190422 828.47638453 784.73943511 738.51091036 689.28387854 636.35613047 578.70520142 514.73676161 
441.70190916 354.01527401 128.78206643 1009.6851021 983.01913674 955.70129613 927.67159046 898.86086166 869.18869974 
838.5607076 806.86484664 773.96645486 739.70129539 703.86559097 666.20127435 626.37330631 583.93312637 538.25620744 
488.42698451 433.00402625 369.4651145 292.54983168 106.54819645 855.42544151 832.57812409 809.18046144 785.1808916 
760.51989769 735.1281859 708.92428931 681.81135947 653.67278161 624.36603859 593.71388459 561.4912286 527.40486486 
491.06061227 451.90673651 409.12862429 361.43078141 306.51060076 239.4275861 80.462630008 715.18814168 694.91688152 
674.13425509 652.78896007 630.82121057 608.16064962 584.72355137 560.4089932 535.09349229 508.62327875 480.80279201 
451.37686429 420.00175672 386.1951142 349.2423634 308.00170347 260.42867404 202.07673725 76.957040539 578.56097143 
552.92302896 526.14047045 498.02400871 468.32817391 436.72482787 402.75806995 365.76151784 324.69056065 277.72965959 
221.13806295 50.114722363 7719.8309022 7803.9293464 7887.1935997 7969.650464 8051.3253886 8132.2425634 8212.4250048 
8291.8946336 8370.6723468 8448.7780833 8526.230884 8603.0489477 8679.2496821 8754.8497513 8829.8651193 8902.0727251 
8973.8587411 9045.1376289 9115.921773 9186.2230914 9256.0530598 9325.4227342 9394.342772 9450.2064275 9505.8591812 
9561.2506802 9616.3857983 9671.2692759 9725.9057249 9780.2996332 9834.4553699 9866.2360082 9897.9944259 9929.7140831 
9961.3955483 9993.0393822 10024.646137 10056.216359 10087.750584 10087.749846 8964.5000775 10175.993631 11198.030566 
12010.707334 
