# vtk DataFile Version 5.1
vtk output
ASCII
DATASET UNSTRUCTURED_GRID
POINTS 474 double
0 0 -3 -0.11344901018 0.17758382911 -3.1345113591 -0.25315847539 0.33878440002 -3.2648786912 
-0.38126193464 0.50363826191 -3.4024021726 -0.5126230829 0.66576812132 -3.5400907975 -0.65843420624 0.83063257984 -3.6586607204 
-0.82297351213 0.96639713451 -3.7890248355 -0.97532665543 1.1205572503 -3.9136168835 -1.1248934303 1.2712178784 -4.0456439831 
-1.260480867 1.4416481412 -4.1684021702 -1.3678821889 1.6074581306 -4.3216079256 -1.4660695894 1.784059061 -4.4688198332 
-1.5694943891 1.9404801104 -4.6341551474 -1.6843141616 2.0801145574 -4.8068358964 -1.7920938126 2.214324268 -4.9881403376 
-1.8953148049 2.3800598251 -5.1442721788 -1.9325266326 2.5204028889 -5.3477890193 -1.973129178 2.6634701459 -5.548744719 
-1.9865147688 2.7616205381 -5.7782819197 -2.0072616269 2.8605132642 -6.0069515429 -2.0326142165 2.9638917436 -6.2331597129 
-1.9920842053 3.0592208557 -6.4606892244 -1.9658829099 3.1812169213 -6.6773235986 -1.95489032 3.3115244098 -6.8903942944 
-1.9618163346 3.4463146723 -7.10083102 -1.9595558315 3.5807523934 -7.3115948434 -1.9591600912 3.7034011527 -7.5294414069 
-1.9922335507 3.8261433401 -7.744709848 -2.0235998482 3.9580476516 -7.9547512915 -2.053410198 4.0821397433 -8.16972221 
-2.0922570198 4.2101350542 -8.380928566 -2.0673262565 4.3390293584 -8.5936836256 -2.0611579752 4.4358891617 -8.8240748816 
-2.0457609566 4.5389463916 -9.0513239502 -2.0376118219 4.6474567449 -9.2763997037 -2.0620327306 4.7344755807 -9.5094905474 
-2.0678249667 4.7919692102 -9.7527207523 -2.0538188065 4.7894724803 -10.002315612 -2.061454029 4.7954964511 -10.25212637 
-2.0748719743 4.7792135014 -10.501234428 -2.0879807121 4.7450832286 -10.748546549 -2.1011430636 4.7103243177 -10.995768253 
-2.1002295418 4.7008537725 -11.245587136 -2.1048346881 4.6894878057 -11.495286169 -2.0641472069 4.6880886783 -11.741949039 
-2.0210511199 4.6768675797 -11.987950694 -1.9835084387 4.6483785121 -12.233468351 -1.9506827239 4.6230643942 -12.480007736 
-1.9004712217 4.6381689642 -12.724447211 -1.8375331244 4.6537107888 -12.96589544 -1.7745908329 4.6759472614 -13.206818265 
-1.7324654219 4.637703043 -13.450257845 -1.6671038275 4.5609504363 -13.679030438 -1.598399743 4.4811403079 -13.905768376 
-1.5362405788 4.3949975328 -14.132077148 -1.4802902991 4.3079524624 -14.359657292 -1.4132617365 4.2082396067 -14.578893508 
-1.3346237404 4.1025622853 -14.791374964 -1.2639046148 4.0215870271 -15.017077895 -1.1811068059 3.9440623254 -15.239865784 
-1.0986307142 3.8389919159 -15.45118995 -0.9637992344 3.7108445705 -15.618219079 -0.83607035007 3.5887696699 -15.795089231 
-0.67316557472 3.4694079904 -15.942448736 -0.49469270494 3.3540019539 -16.074087946 -0.32610371771 3.2396122859 -16.218976721 
-0.14820477506 3.1356714575 -16.360568636 0.012364935668 3.0233302117 -16.515800116 0.1549159304 2.9000749565 -16.680078405 
0.27000396814 2.7652117596 -16.856335778 0.3829086188 2.6314831379 -17.034855232 0.49747072388 2.4976228367 -17.212216287 
0.60083379182 2.4004242314 -17.418052405 0.66797056282 2.2936634265 -17.633910656 0.75017747883 2.1834571348 -17.842708636 
0.82913521304 2.0737203209 -18.053002496 0.84139766799 2.0604437881 -18.08156333 -0.5126230829 0.66576812132 -3.5400907975 
-0.52277406038 0.77956108233 -3.7624601292 -0.53449030145 0.89788545023 -3.982373916 -0.53515452505 1.0082199251 -4.2067081811 
-0.53644590475 1.1144897642 -4.4329935178 -0.53696454607 1.2507070137 -4.6426231721 -0.51878168185 1.3625180934 -4.8654856093 
-0.50273855675 1.4613674127 -5.0945520412 -0.49082816941 1.5488159746 -5.328455636 -0.53649707025 1.6336061495 -5.5591610277 
-0.58531137867 1.7180366746 -5.7893536638 -0.67092791921 1.7968155302 -6.0106310912 -0.74962718774 1.8695191762 -6.2365085027 
-0.83361798078 1.9305568324 -6.4639287111 -0.91700232593 1.9931029055 -6.6911621587 -0.9753928223 2.0369035191 -6.930268947 
-1.0475750197 2.0677300162 -7.1676282894 -1.1009443958 2.0963864931 -7.4101783173 -1.0913733021 2.1254249614 -7.6583015962 
-1.0949643175 2.1422303757 -7.9077102622 -1.0664266342 2.165504346 -8.1548653099 -1.1248934303 1.2712178784 -4.0456439831 
-1.3701105494 1.2938911888 -4.0025802454 -1.6157087444 1.3095406912 -3.9585732041 -1.8617989566 1.2971902892 -3.9162993943 
-2.1048102068 1.2871864009 -3.8584594899 -2.3536918581 1.2700404026 -3.8422133105 -2.6027259385 1.2509731012 -3.853097466 
-2.8484396668 1.2518422052 -3.8991844311 -3.0916583036 1.2465957369 -3.9567793032 -3.3338077351 1.2274596438 -4.0159186538 
-3.5641759617 1.2403219499 -4.1121737381 -3.7912733809 1.2235452575 -4.2153498243 -4.0204382622 1.2355273717 -4.3145460244 
-4.2478450942 1.2493184055 -4.4174826076 -4.4834828557 1.2739945955 -4.4972693924 -4.7217834282 1.3027450896 -4.567171082 
-4.9607669071 1.3311838138 -4.6348330046 -5.199558466 1.3700473821 -4.6978267701 -5.4302756926 1.4046385181 -4.7876767264 
-5.6506628044 1.4263130494 -4.9036928272 -5.8669179291 1.4821841882 -5.0156676629 -1.5694943891 1.9404801104 -4.6341551474 
-1.4895185985 2.1771164887 -4.6238063594 -1.381831314 2.3982210442 -4.5789039731 -1.2633369749 2.613011121 -4.5306928281 
-1.1462127147 2.8284302862 -4.4819435621 -1.0110186488 3.0229077887 -4.4019369025 -0.87475765502 3.2163027526 -4.3211202613 
-0.70885179817 3.3900448113 -4.2519180669 -0.54644443097 3.5633239055 -4.1738270778 -0.35505468441 3.7110359584 -4.1101787129 
-0.1483501848 3.8487343787 -4.0816761715 0.067808343634 3.9732436541 -4.0651555501 0.28749992486 4.0913120878 -4.0479667714 
0.50374755256 4.2143802933 -4.0236525716 0.73000447932 4.3146703998 -3.988301509 0.94938943915 4.4138568734 -3.9209792775 
1.1649049221 4.5245782177 -3.8593849555 1.3613181123 4.6701551205 -3.8071429788 1.5518888171 4.8233410947 -3.7550194358 
1.7445140987 4.9527028979 -3.6619548088 1.9520510821 5.0706612644 -3.5883375689 -1.9325266326 2.5204028889 -5.3477890193 
-2.0959306286 2.7087500879 -5.365801979 -2.2633102792 2.8933902522 -5.385602541 -2.4178782198 3.0885612485 -5.4083409222 
-2.5479432722 3.3001525355 -5.43684021 -2.6787178666 3.5102060499 -5.4725547247 -2.8107433098 3.7194501556 -5.5084181681 
-2.9413858908 3.9308341965 -5.5357915725 -3.0679742596 4.1429310387 -5.574396163 -3.2382620752 4.3194711085 -5.6227248669 
-3.4034421657 4.4981947511 -5.679938478 -3.5627383883 4.6713598955 -5.7644283958 -3.7260812147 4.8202216789 -5.8813013633 
-3.8851823596 4.9781299918 -5.9919891692 -4.0318882388 5.1192579924 -6.1371107474 -4.1776034972 5.267674107 -6.2758180666 
-4.3006385034 5.4063912843 -6.4435080543 -4.3993083167 5.5617470301 -6.612708705 -4.4888422999 5.7516090069 -6.7484882896 
-4.5691850661 5.9608949852 -6.8591427934 -4.6250139927 6.1476728782 -7.0152628647 -2.0326142165 2.9638917436 -6.2331597129 
-1.8379661322 2.9856981232 -6.3885193121 -1.6391598511 3.01010672 -6.5381197233 -1.4501474801 3.0433683747 -6.6983320385 
-1.259729815 3.1333976635 -6.8330014113 -1.0836211307 3.1947706356 -6.9994919203 -0.90834424086 3.2595978692 -7.1655504693 
-0.7571583047 3.3005064676 -7.3604075946 -0.60996519126 3.3440873206 -7.5577268704 -0.49002972453 3.3894289805 -7.7723419158 
-0.36913794691 3.4240836293 -7.988407261 -0.25986560906 3.4360709529 -8.212942025 -0.15574965957 3.4430170546 -8.4401239362 
-0.037148734201 3.3980559853 -8.65555913 0.11474077309 3.3523152081 -8.8487879034 0.25761539666 3.307527632 -9.0489900887 
0.37134473956 3.3170620605 -9.2714192487 0.45184428968 3.4066055838 -9.4905123337 0.52755006512 3.4859579188 -9.7151717258 
0.61963079677 3.5558990082 -9.9368232155 0.71155600796 3.6256716727 -10.158220968 -1.9618163346 3.4463146723 -7.10083102 
-2.0309726592 3.3358535308 -7.3141751996 -2.104616748 3.2322445112 -7.5294464686 -2.190188981 3.1546980797 -7.751175907 
-2.2976904794 3.0825969981 -7.9650563921 -2.3991063146 3.0081621014 -8.1810986901 -2.5152911443 2.932724715 -8.3892099249 
-2.6353777226 2.9151416721 -8.607773532 -2.7375207027 2.9036163259 -8.8356638083 -2.8064497636 2.8770738805 -9.0745032588 
-2.8451554793 2.8922226211 -9.3210238122 -2.8645235536 2.9469414014 -9.5641919285 -2.8916055665 2.9711691852 -9.8115369892 
-2.9352780296 2.950425028 -10.056817229 -2.9962578971 2.9862888521 -10.296598883 -3.0614373976 3.0026472426 -10.537397629 
-3.1480640416 3.0173237865 -10.77144981 -3.2331271899 3.0370317538 -11.005705774 -3.288509663 3.025893663 -11.249239601 
-3.320897827 3.0297427036 -11.497102853 -3.3208786737 3.0038642036 -11.745309351 -2.0235998482 3.9580476516 -7.9547512915 
-1.8641792939 4.1284428016 -8.0444763141 -1.703088157 4.2983186837 -8.1321793946 -1.5312487767 4.4435719007 -8.2411414537 
-1.3581433132 4.5892239683 -8.3475368188 -1.1862146091 4.7158958043 -8.4775166889 -1.0186464144 4.8089534404 -8.6380195752 
-0.86800983641 4.8930373924 -8.8189574385 -0.72884017182 4.9763139347 -9.0092120626 -0.59088419752 5.0655988889 -9.1976168027 
-0.45467165021 5.1541236562 -9.3876418208 -0.32760832179 5.2513809607 -9.5797249468 -0.20178605879 5.3528466093 -9.770443274 
-0.086646172337 5.4573309696 -9.9662131005 0.03316044533 5.5673355231 -10.15606929 0.1539268129 5.6761187869 -10.346021089 
0.26904779452 5.7614038547 -10.550895726 0.38126424888 5.8387279751 -10.76048687 0.52095386486 5.9122322598 -10.954352626 
0.65941290954 5.9812120167 -11.150747346 0.83217367741 6.082715558 -11.299200735 -2.0611579752 4.4358891617 -8.8240748816 
-2.2749039929 4.4474172946 -8.9532249573 -2.4981042812 4.4241463158 -9.0634070468 -2.7250734602 4.4038012478 -9.1662227557 
-2.9418091811 4.3703748547 -9.2862573487 -3.1667417949 4.3351481088 -9.3895259095 -3.3871943636 4.2952164277 -9.5004588882 
-3.6033343095 4.2456788972 -9.6159125883 -3.8152564157 4.1965541869 -9.7391026194 -4.0309626123 4.1245192607 -9.8429380958 
-4.2473437712 4.0832631956 -9.9611630135 -4.4655861722 4.0789046166 -10.083028748 -4.6819146229 4.0739012266 -10.208236445 
-4.9124821926 4.0776730423 -10.304799219 -5.1348570088 4.0688567566 -10.418692652 -5.3596202142 4.1049321565 -10.522037062 
[...]
CELL_DATA 451
SCALARS solution%20variable double
LOOKUP_TABLE default
7634.8264578 7392.426499 7143.2301731 6885.0759072 6678.3342913 6463.9387393 6242.2402948 6012.4295258 5829.4462702 
5639.598052 5443.1902399 5239.4835381 5078.1248559 4910.6434385 4737.3043513 4557.4375755 4415.611203 4268.3515609 
4115.8884018 3957.6186808 3833.3092694 3704.1995447 3570.4884898 3431.6365584 3322.9342179 3210.0064078 3093.0254096 
2971.5108305 2876.6312317 2778.0430982 2675.895605 2569.7625875 2487.058317 2401.1060908 2312.0351217 2219.4682076 
2147.4319869 2072.5544313 1994.9475137 1914.2775565 1851.5377984 1786.3120462 1718.6973604 1648.3980493 1593.7074963 
1536.8373629 1477.8717406 1416.5472328 1368.7639272 1319.0597387 1267.5073207 1213.8694854 1171.927723 1128.2748274 
1082.9730039 1035.8041871 998.66823595 959.97553895 919.77526083 877.85566759 844.42942308 809.51488411 773.14669146 
735.10408771 704.45160359 672.2942693 638.64475337 603.24760369 577.29247118 550.0374608 521.48860204 491.41432032 
459.50824216 425.35031869 388.33732524 31.848302735 6753.1305438 6618.1470063 6480.3827847 6339.6561722 6195.7648624 
6048.482525 5897.5546113 5742.6931687 5583.570363 5419.8102881 5250.9784789 5076.5682849 4895.9828745 4708.5110237 
4513.2938461 4309.277942 4095.1475019 3869.2225151 3629.2997723 670.39059797 5892.3336814 5769.3535664 5643.7261326 
5515.270026 5383.7822999 5249.0346342 5110.7686602 4968.6901141 4822.4614436 4671.6923305 4515.927368 4354.6297705 
4187.1594333 4012.7427463 3830.4300221 3639.0336987 3437.0355001 3222.4410634 2992.5403674 597.3907948 5130.9419919 
5019.6962942 4905.9622783 4789.5622086 4670.2962492 4547.9384142 4422.2315121 4292.8807581 4159.5456012 4021.8291137 
3879.2639915 3731.2937411 3577.2468585 3416.3005213 3247.4280634 3069.3203883 2880.2635254 2677.9380974 2459.0695391 
529.86729145 4459.9879277 4360.0331939 4257.7682114 4153.0218263 4045.6007831 3935.2855109 3821.8248168 3704.9291184 
3584.2616925 3459.4271783 3329.9562034 3195.2844025 3054.7231085 2907.4172781 2752.283118 2587.9119817 2412.4151401 
2223.1577679 2016.2667963 467.92782179 3870.659075 3781.4046612 3690.0299876 3596.3729366 3500.2497648 3401.4508362 
3299.7352085 3194.8236697 3086.3896483 2974.0471432 2857.3343851 2735.6912249 2608.4270277 2474.6736923 2333.3143894 
2182.8706582 2021.313586 1845.7254462 1651.6351479 411.5621645 3354.461109 3275.2049653 3194.0235329 3110.7655579 
3025.2590447 2937.307044 2846.6822704 2753.1201304 2656.3095434 2555.8806377 2451.3879141 2342.2866511 2227.8989089 
2107.3629082 1979.5546177 1842.9602594 1695.4559762 1533.8956406 1353.2518498 360.64462687 2903.3479746 2833.3160034 
2761.5526171 2687.9186012 2612.2552027 2534.3800624 2454.0819899 2371.1141501 2285.1850295 2195.9462252 2102.9755774 
2005.75327 1903.6269442 1795.7589422 1681.0430276 1557.9657503 1424.3594989 1276.921411 1110.1514164 314.9498813 
2509.8114109 2448.1951563 2385.0354143 2320.2055879 2253.5609633 2184.934861 2114.133667 2040.9303174 1965.0556068 
1886.186357 1803.9289387 1717.7957006 1627.1701722 1531.2537223 1428.9799403 1318.8690785 1198.7615774 1065.279168 
912.56850477 274.17058263 2166.9294054 2112.9184643 2057.5425174 2000.6876609 1942.2234248 1881.9991925 1819.8395604 
1755.5382254 1688.8497872 1619.4785223 1547.0626398 1471.1515761 1391.1721493 1306.376064 1215.7544189 1117.8896588 
1010.6778616 890.74779652 752.02677781 237.92899259 1868.3787521 1821.1875124 1772.7981454 1723.1091412 1672.0040254 
1619.3480791 1564.9840735 1508.7266292 1450.3546187 1389.6007084 1326.1366069 1259.5516425 1189.3205671 1114.7531158 
1034.910834 948.4607271 853.39105302 746.40475936 621.36228895 205.7996524 1608.4121654 1567.2993868 1525.1427611 
1481.8526219 1437.3259331 1391.4433257 1344.0652311 1295.0267528 1244.1307332 1191.1381704 1135.7546333 1077.6104205 
1016.2305343 950.98724241 881.01754993 805.08273941 721.29241649 626.49127363 514.61426713 177.3060905 1381.8066586 
1346.0907178 1309.4726669 1271.874006 1233.2044183 1193.3591259 1152.2154332 1109.6281288 1065.4232508 1019.3894407 
971.26563745 920.72106829 867.32766594 810.51700981 749.50597912 683.16250561 609.73915889 526.26905028 426.88229857 
151.8943878 1183.7772835 1152.8483368 1121.1474716 1088.6066714 1055.1475991 1020.6792709 985.09500982 948.26740387 
910.04210055 870.23120961 828.60212661 784.86105641 738.62779687 689.39534516 636.46139974 578.80337134 514.82675466 
441.78239009 354.08453418 128.80297118 1009.8477537 983.1825139 955.86500698 927.83521857 899.02396419 869.3508052 
838.7213131 807.02341454 774.12240846 739.85401332 704.01439995 666.34543926 626.51201653 584.06547621 538.38116714 
488.54335514 433.11036592 369.55961105 292.63008941 106.57283933 855.61008837 832.76476641 809.3686025 785.36999938 
760.7094025 735.31747758 709.11271372 681.99821425 653.85731072 624.54742534 593.89124241 561.6635886 527.57115853 
491.21964664 452.05715717 409.26885757 361.55893929 306.62431669 239.52375168 80.489477667 715.39139675 695.12304652 
674.34268129 652.99894662 631.03200085 608.37142675 584.93343274 560.61702351 535.29863458 508.82440247 480.99865679 
451.56609712 420.18281851 386.36624876 349.40151472 308.14637161 260.55563804 202.18145383 76.992313081 578.76934592 
553.12962157 526.34429018 498.22397899 468.52311956 436.9134579 402.93895474 365.9330601 324.85096477 277.87693644 
221.27033438 50.136245677 7719.9461408 7804.0451655 7887.3099534 7969.7673076 8051.4426782 8132.3602562 8212.5430587 
8292.0130075 8370.7910005 8448.8969772 8526.3499794 8603.1682067 8679.3690675 8754.9692266 8829.9846488 8902.192297 
8973.9783189 9045.2571781 9116.0412597 9186.3424823 9256.1723223 9325.5418363 9394.4616824 9450.3252679 9505.9779162 
9561.3692754 9616.5042202 9671.3874914 9726.0237015 9780.4173389 9834.5727733 9866.353336 9898.1116419 9929.8311516 
9961.5124342 9993.1560507 10024.762554 10056.33249 10087.866396 10087.865658 8964.6182125 10176.103222 11198.132588 
12010.80242 
