# vtk DataFile Version 5.1
vtk output
ASCII
DATASET UNSTRUCTURED_GRID
POINTS 474 double
0 0 -3 -0.11344901018 0.17758382911 -3.1345113591 -0.25315847539 0.33878440002 -3.2648786912 
-0.38126193464 0.50363826191 -3.4024021726 -0.5126230829 0.66576812132 -3.5400907975 -0.65843420624 0.83063257984 -3.6586607204 
-0.82297351213 0.96639713451 -3.7890248355 -0.97532665543 1.1205572503 -3.9136168835 -1.1248934303 1.2712178784 -4.0456439831 
-1.260480867 1.4416481412 -4.1684021702 -1.3678821889 1.6074581306 -4.3216079256 -1.4660695894 1.784059061 -4.4688198332 
-1.5694943891 1.9404801104 -4.6341551474 -1.6843141616 2.0801145574 -4.8068358964 -1.7920938126 2.214324268 -4.9881403376 
-1.8953148049 2.3800598251 -5.1442721788 -1.9325266326 2.5204028889 -5.3477890193 -1.973129178 2.6634701459 -5.548744719 
-1.9865147688 2.7616205381 -5.7782819197 -2.0072616269 2.8605132642 -6.0069515429 -2.0326142165 2.9638917436 -6.2331597129 
-1.9920842053 3.0592208557 -6.4606892244 -1.9658829099 3.1812169213 -6.6773235986 -1.95489032 3.3115244098 -6.8903942944 
-1.9618163346 3.4463146723 -7.10083102 -1.9595558315 3.5807523934 -7.3115948434 -1.9591600912 3.7034011527 -7.5294414069 
-1.9922335507 3.8261433401 -7.744709848 -2.0235998482 3.9580476516 -7.9547512915 -2.053410198 4.0821397433 -8.16972221 
-2.0922570198 4.2101350542 -8.380928566 -2.0673262565 4.3390293584 -8.5936836256 -2.0611579752 4.4358891617 -8.8240748816 
-2.0457609566 4.5389463916 -9.0513239502 -2.0376118219 4.6474567449 -9.2763997037 -2.0620327306 4.7344755807 -9.5094905474 
-2.0678249667 4.7919692102 -9.7527207523 -2.0538188065 4.7894724803 -10.002315612 -2.061454029 4.7954964511 -10.25212637 
-2.0748719743 4.7792135014 -10.501234428 -2.0879807121 4.7450832286 -10.748546549 -2.1011430636 4.7103243177 -10.995768253 
-2.1002295418 4.7008537725 -11.245587136 -2.1048346881 4.6894878057 -11.495286169 -2.0641472069 4.6880886783 -11.741949039 
-2.0210511199 4.6768675797 -11.987950694 -1.9835084387 4.6483785121 -12.233468351 -1.9506827239 4.6230643942 -12.480007736 
-1.9004712217 4.6381689642 -12.724447211 -1.8375331244 4.6537107888 -12.96589544 -1.7745908329 4.6759472614 -13.206818265 
-1.7324654219 4.637703043 -13.450257845 -1.6671038275 4.5609504363 -13.679030438 -1.598399743 4.4811403079 -13.905768376 
-1.5362405788 4.3949975328 -14.132077148 -1.4802902991 4.3079524624 -14.359657292 -1.4132617365 4.2082396067 -14.578893508 
-1.3346237404 4.1025622853 -14.791374964 -1.2639046148 4.0215870271 -15.017077895 -1.1811068059 3.9440623254 -15.239865784 
-1.0986307142 3.8389919159 -15.45118995 -0.9637992344 3.7108445705 -15.618219079 -0.83607035007 3.5887696699 -15.795089231 
-0.67316557472 3.4694079904 -15.942448736 -0.49469270494 3.3540019539 -16.074087946 -0.32610371771 3.2396122859 -16.218976721 
-0.14820477506 3.1356714575 -16.360568636 0.012364935668 3.0233302117 -16.515800116 0.1549159304 2.9000749565 -16.680078405 
0.27000396814 2.7652117596 -16.856335778 0.3829086188 2.6314831379 -17.034855232 0.49747072388 2.4976228367 -17.212216287 
0.60083379182 2.4004242314 -17.418052405 0.66797056282 2.2936634265 -17.633910656 0.75017747883 2.1834571348 -17.842708636 
0.82913521304 2.0737203209 -18.053002496 0.84139766799 2.0604437881 -18.08156333 -0.5126230829 0.66576812132 -3.5400907975 
-0.52277406038 0.77956108233 -3.7624601292 -0.53449030145 0.89788545023 -3.982373916 -0.53515452505 1.0082199251 -4.2067081811 
-0.53644590475 1.1144897642 -4.4329935178 -0.53696454607 1.2507070137 -4.6426231721 -0.51878168185 1.3625180934 -4.8654856093 
-0.50273855675 1.4613674127 -5.0945520412 -0.49082816941 1.5488159746 -5.328455636 -0.53649707025 1.6336061495 -5.5591610277 
-0.58531137867 1.7180366746 -5.7893536638 -0.67092791921 1.7968155302 -6.0106310912 -0.74962718774 1.8695191762 -6.2365085027 
-0.83361798078 1.9305568324 -6.4639287111 -0.91700232593 1.9931029055 -6.6911621587 -0.9753928223 2.0369035191 -6.930268947 
-1.0475750197 2.0677300162 -7.1676282894 -1.1009443958 2.0963864931 -7.4101783173 -1.0913733021 2.1254249614 -7.6583015962 
-1.0949643175 2.1422303757 -7.9077102622 -1.0664266342 2.165504346 -8.1548653099 -1.1248934303 1.2712178784 -4.0456439831 
-1.3701105494 1.2938911888 -4.0025802454 -1.6157087444 1.3095406912 -3.9585732041 -1.8617989566 1.2971902892 -3.9162993943 
-2.1048102068 1.2871864009 -3.8584594899 -2.3536918581 1.2700404026 -3.8422133105 -2.6027259385 1.2509731012 -3.853097466 
-2.8484396668 1.2518422052 -3.8991844311 -3.0916583036 1.2465957369 -3.9567793032 -3.3338077351 1.2274596438 -4.0159186538 
-3.5641759617 1.2403219499 -4.1121737381 -3.7912733809 1.2235452575 -4.2153498243 -4.0204382622 1.2355273717 -4.3145460244 
-4.2478450942 1.2493184055 -4.4174826076 -4.4834828557 1.2739945955 -4.4972693924 -4.7217834282 1.3027450896 -4.567171082 
-4.9607669071 1.3311838138 -4.6348330046 -5.199558466 1.3700473821 -4.6978267701 -5.4302756926 1.4046385181 -4.7876767264 
-5.6506628044 1.4263130494 -4.9036928272 -5.8669179291 1.4821841882 -5.0156676629 -1.5694943891 1.9404801104 -4.6341551474 
-1.4895185985 2.1771164887 -4.6238063594 -1.381831314 2.3982210442 -4.5789039731 -1.2633369749 2.613011121 -4.5306928281 
-1.1462127147 2.8284302862 -4.4819435621 -1.0110186488 3.0229077887 -4.4019369025 -0.87475765502 3.2163027526 -4.3211202613 
-0.70885179817 3.3900448113 -4.2519180669 -0.54644443097 3.5633239055 -4.1738270778 -0.35505468441 3.7110359584 -4.1101787129 
-0.1483501848 3.8487343787 -4.0816761715 0.067808343634 3.9732436541 -4.0651555501 0.28749992486 4.0913120878 -4.0479667714 
0.50374755256 4.2143802933 -4.0236525716 0.73000447932 4.3146703998 -3.988301509 0.94938943915 4.4138568734 -3.9209792775 
1.1649049221 4.5245782177 -3.8593849555 1.3613181123 4.6701551205 -3.8071429788 1.5518888171 4.8233410947 -3.7550194358 
1.7445140987 4.9527028979 -3.6619548088 1.9520510821 5.0706612644 -3.5883375689 -1.9325266326 2.5204028889 -5.3477890193 
-2.0959306286 2.7087500879 -5.365801979 -2.2633102792 2.8933902522 -5.385602541 -2.4178782198 3.0885612485 -5.4083409222 
-2.5479432722 3.3001525355 -5.43684021 -2.6787178666 3.5102060499 -5.4725547247 -2.8107433098 3.7194501556 -5.5084181681 
-2.9413858908 3.9308341965 -5.5357915725 -3.0679742596 4.1429310387 -5.574396163 -3.2382620752 4.3194711085 -5.6227248669 
-3.4034421657 4.4981947511 -5.679938478 -3.5627383883 4.6713598955 -5.7644283958 -3.7260812147 4.8202216789 -5.8813013633 
-3.8851823596 4.9781299918 -5.9919891692 -4.0318882388 5.1192579924 -6.1371107474 -4.1776034972 5.267674107 -6.2758180666 
-4.3006385034 5.4063912843 -6.4435080543 -4.3993083167 5.5617470301 -6.612708705 -4.4888422999 5.7516090069 -6.7484882896 
-4.5691850661 5.9608949852 -6.8591427934 -4.6250139927 6.1476728782 -7.0152628647 -2.0326142165 2.9638917436 -6.2331597129 
-1.8379661322 2.9856981232 -6.3885193121 -1.6391598511 3.01010672 -6.5381197233 -1.4501474801 3.0433683747 -6.6983320385 
-1.259729815 3.1333976635 -6.8330014113 -1.0836211307 3.1947706356 -6.9994919203 -0.90834424086 3.2595978692 -7.1655504693 
-0.7571583047 3.3005064676 -7.3604075946 -0.60996519126 3.3440873206 -7.5577268704 -0.49002972453 3.3894289805 -7.7723419158 
-0.36913794691 3.4240836293 -7.988407261 -0.25986560906 3.4360709529 -8.212942025 -0.15574965957 3.4430170546 -8.4401239362 
-0.037148734201 3.3980559853 -8.65555913 0.11474077309 3.3523152081 -8.8487879034 0.25761539666 3.307527632 -9.0489900887 
0.37134473956 3.3170620605 -9.2714192487 0.45184428968 3.4066055838 -9.4905123337 0.52755006512 3.4859579188 -9.7151717258 
0.61963079677 3.5558990082 -9.9368232155 0.71155600796 3.6256716727 -10.158220968 -1.9618163346 3.4463146723 -7.10083102 
-2.0309726592 3.3358535308 -7.3141751996 -2.104616748 3.2322445112 -7.5294464686 -2.190188981 3.1546980797 -7.751175907 
-2.2976904794 3.0825969981 -7.9650563921 -2.3991063146 3.0081621014 -8.1810986901 -2.5152911443 2.932724715 -8.3892099249 
-2.6353777226 2.9151416721 -8.607773532 -2.7375207027 2.9036163259 -8.8356638083 -2.8064497636 2.8770738805 -9.0745032588 
-2.8451554793 2.8922226211 -9.3210238122 -2.8645235536 2.9469414014 -9.5641919285 -2.8916055665 2.9711691852 -9.8115369892 
-2.9352780296 2.950425028 -10.056817229 -2.9962578971 2.9862888521 -10.296598883 -3.0614373976 3.0026472426 -10.537397629 
-3.1480640416 3.0173237865 -10.77144981 -3.2331271899 3.0370317538 -11.005705774 -3.288509663 3.025893663 -11.249239601 
-3.320897827 3.0297427036 -11.497102853 -3.3208786737 3.0038642036 -11.745309351 -2.0235998482 3.9580476516 -7.9547512915 
-1.8641792939 4.1284428016 -8.0444763141 -1.703088157 4.2983186837 -8.1321793946 -1.5312487767 4.4435719007 -8.2411414537 
-1.3581433132 4.5892239683 -8.3475368188 -1.1862146091 4.7158958043 -8.4775166889 -1.0186464144 4.8089534404 -8.6380195752 
-0.86800983641 4.8930373924 -8.8189574385 -0.72884017182 4.9763139347 -9.0092120626 -0.59088419752 5.0655988889 -9.1976168027 
-0.45467165021 5.1541236562 -9.3876418208 -0.32760832179 5.2513809607 -9.5797249468 -0.20178605879 5.3528466093 -9.770443274 
-0.086646172337 5.4573309696 -9.9662131005 0.03316044533 5.5673355231 -10.15606929 0.1539268129 5.6761187869 -10.346021089 
0.26904779452 5.7614038547 -10.550895726 0.38126424888 5.8387279751 -10.76048687 0.52095386486 5.9122322598 -10.954352626 
0.65941290954 5.9812120167 -11.150747346 0.83217367741 6.082715558 -11.299200735 -2.0611579752 4.4358891617 -8.8240748816 
-2.2749039929 4.4474172946 -8.9532249573 -2.4981042812 4.4241463158 -9.0634070468 -2.7250734602 4.4038012478 -9.1662227557 
-2.9418091811 4.3703748547 -9.2862573487 -3.1667417949 4.3351481088 -9.3895259095 -3.3871943636 4.2952164277 -9.5004588882 
-3.6033343095 4.2456788972 -9.6159125883 -3.8152564157 4.1965541869 -9.7391026194 -4.0309626123 4.1245192607 -9.8429380958 
-4.2473437712 4.0832631956 -9.9611630135 -4.4655861722 4.0789046166 -10.083028748 -4.6819146229 4.0739012266 -10.208236445 
-4.9124821926 4.0776730423 -10.304799219 -5.1348570088 4.0688567566 -10.418692652 -5.3596202142 4.1049321565 -10.522037062 
[...]
CELL_DATA 451
SCALARS solution%20variable double
LOOKUP_TABLE default
7635.0661783 7392.6624776 7143.4623155 6885.3041272 6678.5592442 6464.1603348 6242.4584463 6012.6441554 5829.6580751 
5639.806955 5443.3961666 5239.686425 5078.3254339 4910.8416498 4737.5001396 4557.6308986 4415.8028184 4268.5414372 
4116.0765076 3957.805004 3833.4945885 3704.3838627 3570.6718085 3431.8189052 3323.1163886 3210.1884496 3093.2073664 
2971.6927805 2876.8139855 2778.2267577 2676.0802662 2569.9483916 2487.2460844 2401.2959893 2312.2273095 2219.6629012 
2147.6300037 2072.7560145 1995.1528919 1914.4870322 1851.7521546 1786.5316073 1718.9224281 1648.6290168 1593.945045 
1537.0818933 1478.1236192 1416.8069357 1369.031908 1319.3364499 1267.7931645 1214.1649898 1172.2328957 1128.5901163 
1083.2987843 1036.1409711 999.01523302 960.33310776 920.14366441 878.23531198 844.81811477 809.91270284 773.55359308 
735.52015953 704.87333278 672.72121859 639.07633024 603.68330959 577.73223304 550.48022597 521.93308393 491.85921947 
459.95230062 425.79242671 388.77674357 31.868266286 6753.3570956 6618.3718072 6480.6057482 6339.8772106 6195.9838876 
6048.6994485 5897.7693447 5742.9056246 5583.7804552 5420.0179332 5251.1835976 5076.7708042 4896.1827308 4708.708167 
4513.488247 4309.4696008 4095.3364642 3869.4088961 3629.4837974 670.41069194 5892.5465612 5769.5646006 5643.9352207 
5515.4770659 5383.9871879 5249.2372651 5110.9689276 4968.8879112 4822.6566633 4671.8848667 4516.117117 4354.8166328 
4187.3433168 4012.9235708 3830.6077264 3639.2082518 3437.2069193 3222.6094456 2992.7059451 597.41073914 5131.1430768 
5019.895467 4906.1594241 4789.7572097 4670.4889851 4548.1287618 4422.4193456 4293.0659493 4159.72802 4022.0086286 
3879.4404711 3731.4670551 3577.4168811 3416.4671352 3247.591167 3069.4799076 2880.419435 2678.0904583 2459.2185728 
529.88712078 4460.1794255 4360.2227415 4257.9556783 4153.207078 4045.7836813 3935.465913 3822.0025758 3705.1040832 
3584.4337078 3459.5960849 3330.1218386 3195.4466017 3054.8817071 2907.5721151 2752.4340426 2588.0588652 2412.5578983 
2223.2964047 2016.4014969 467.94762614 3870.8435768 3781.5872002 3690.2104162 3596.551102 3500.4255088 3401.6239951 
3299.9056121 3194.9911416 3086.5540054 2974.2081954 2857.4919356 2735.8450704 2608.5769597 2474.8194996 2333.4558633 
2183.0076031 2021.4458416 1845.8529347 1651.7579864 411.58210709 3354.6416624 3275.3835657 3194.2000129 3110.9397434 
3025.4307551 2937.4760908 2846.8484573 2753.2832524 2656.4693858 2556.0369756 2451.5405119 2342.4352617 2228.0432738 
2107.5027585 1979.689677 1843.0902522 1695.5806474 1534.0148031 1353.3655122 360.66496444 2903.5281831 2833.4942886 
2761.7287873 2688.0924569 2612.4265356 2534.5486548 2454.2476137 2371.2765661 2285.3439856 2196.1014555 2103.1268006 
2005.9001875 1903.769239 1795.8962775 1681.175047 1558.0920825 1424.4797716 1277.0352948 1110.2587608 314.97098336 
2509.9955546 2448.3774298 2385.215595 2320.3834432 2253.7362501 2185.1073245 2114.3030391 2041.0963158 1965.2179329 
1886.3446937 1804.0829484 1717.9450216 1627.314416 1531.3924696 1429.1127375 1318.9954368 1198.8809792 1065.3911002 
912.67259377 274.19296776 2167.1225654 2113.1098441 2057.731853 2000.8746763 1942.4078305 1882.1806844 1820.0178177 
1755.7129094 1689.0205382 1619.6449569 1547.2243474 1471.3081142 1391.3230381 1306.5207795 1215.8923846 1118.0202377 
1010.8003509 890.86144454 752.13091159 237.95335903 1868.5869005 1821.3940373 1773.0027265 1723.311443 1672.2036953 
1619.5447458 1565.1773447 1508.9160895 1450.5398257 1389.7811892 1326.3118529 1259.7211031 1189.483641 1114.9091406 
1035.0590715 948.60034567 853.52111718 746.52421352 621.47004031 205.82690608 1608.642156 1567.5280368 1525.3696731 
1482.0773783 1437.5480944 1391.662428 1344.2807832 1295.2382332 1244.3375858 1191.3397989 1135.9503945 1077.7996155 
1016.4123964 951.16092099 881.18210116 805.23708594 721.43530696 626.62123683 514.72962992 177.3373868 1382.0659812 
1346.3492049 1309.7298153 1272.1292852 1233.4572681 1193.6089539 1152.4616106 1109.8699863 1065.6600732 1019.6204595 
971.49002153 920.93792741 867.53602147 810.71577265 749.69391818 683.33820184 609.90093654 526.4148781 427.00970355 
151.93110171 1184.0734051 1153.1444985 1121.4430262 1088.9009339 1055.4398435 1020.9687265 985.38085653 948.54878536 
910.31810056 870.50084296 828.86432751 785.11466275 738.8715287 689.62777437 636.68090573 579.0080738 515.01440756 
441.95021009 354.22896 128.84655879 1010.1867748 983.52303723 956.20621622 928.17624614 899.3638875 869.68864201 
839.0560159 807.35386343 774.44740219 740.17225776 704.32449278 666.64584944 626.8010558 584.34125836 538.64154754 
488.78583683 433.33194596 369.75651546 292.79732926 106.62418295 855.99474912 833.15356121 809.76049695 785.76388575 
761.10409485 735.71170582 709.50511646 682.38732985 654.24156602 624.92512113 594.26053425 562.02246089 527.91738856 
491.55075291 452.37032238 409.56080838 361.82574852 306.86106199 239.72396836 80.545362662 715.81461814 695.55228242 
674.77658133 653.43605242 631.47073836 608.81009706 585.37020062 561.04990302 535.72547039 509.24284513 481.40612901 
451.95974624 420.55944714 386.72220855 349.73253455 308.44725805 260.81969952 202.39925165 77.065660483 579.20312887 
553.55967149 526.76854659 498.64020377 468.92886993 437.30605058 403.31541869 366.29007621 325.18480246 278.18346428 
221.54565524 50.181025846 7720.1871736 7804.2874126 7887.5533191 7970.0116982 8051.688002 8132.6064235 8212.7899816 
8292.2606 8371.0391782 8449.1456576 8526.5990815 8603.4176512 8679.6187766 8755.2191241 8830.2346597 8902.4423968 
8974.2284313 9045.5072308 9116.2911818 9186.5922043 9256.4217759 9325.7909545 9394.7103994 9450.5738389 9506.2262666 
9561.6173337 9616.7519161 9671.6347557 9726.2704661 9780.6635371 9834.8183392 9866.5987438 9898.3568158 9930.0760173 
9961.7569179 9993.4000796 10025.006056 10056.575394 10088.108631 10088.107898 8964.8653068 10176.332449 11198.345981 
12011.001308 
