<?xml version="1.0"?><VTKFile type="PolyData" version="0.1" byte_order="LittleEndian">
<PolyData>
<Piece NumberOfLines="958" NumberOfPoints="3308">
<PointData Scalars=" PointData">
<DataArray type="Float32" Name="time" NumberOfComponents="1" format="ascii" >
0 0.253915 0.4629 0.677386 0.89767 1.12407 1.35695 1.59667 1.84366 2.09837 2.36129 2.63298 2.91405 3.20515 3.50704 3.82054 4.14658 4.48621 4.84062 5.21113 5.5993 6.00689 6.43593 6.88883 7.36838 7.87792 8.42145 9.00384 9.63108 10.3106 11.0521 11.8677 12.7742 13.7943 14.9606 16.3221 17.9575 20.0057 22.748 26.9112 30 0.569438 0.8857 1.22052 1.45633 1.72651 2.06493 2.35837 2.69644 3.05363 3.33116 3.83371 4.27937 4.77677 5.21325 5.87611 6.40814 7.17736 7.69299 8.1025 8.74011 9.37235 10.3108 11.0954 12.416 13.607 14.6455 15.8983 17.9457 19.4935 22.804 27.1755 30 1.35823 1.41946 1.70683 30 1.50359 30 1.71172 1.76824 2.06589 30 1.84709 30 1.96113 2.02886 2.32523 30 2.10782 30 2.24736 2.31804 2.59878 30 2.41243 30 2.60665 2.6809 3.0318 30 2.78881 30 2.91887 2.98355 3.2622 30 3.06808 30 3.27942 3.33395 3.59099 30 3.40734 30 3.66136 3.73564 4.02851 30 3.8115 30 11.9661 30 3.95888 4.01914 4.27479 30 4.09859 30 4.49938 4.55909 4.82177 30 4.64593 30 4.98068 5.03532 5.28378 30 5.10833 30 5.52022 5.5801 5.84301 30 5.66036 30 5.99585 6.04998 6.32556 30 6.12014 30 6.72234 6.77575 7.00833 30 6.85472 30 7.30934 7.37878 7.75044 30 7.4654 30 8.16479 8.22444 8.53024 30 8.29838 30 8.74307 8.79473 9.01629 30 8.87382 30 9.20534 9.25576 9.50351 30 9.33492 30 17.0039 30 9.93078 9.98347 10.2529 30 10.0688 30 18.2193 30 10.6575 10.7183 10.9681 30 10.7908 30 11.7514 11.8129 12.0813 30 11.8824 30 12.6817 12.7384 13.0103 30 12.8037 30 14.2852 14.3501 14.6253 30 14.4483 30 15.7799 15.8412 16.1192 30 15.9504 30 25.325 30 17.1291 17.2011 17.5064 30 17.2926 30 18.827 18.8841 19.1522 30 18.9846 30 21.8227 21.8744 22.1211 30 21.9558 29.9205 24.3479 24.4074 24.6764 30 24.4874 30 0.786784 1.12563 1.50979 1.82316 2.29629 2.65444 2.92371 3.27692 3.52717 3.97255 4.30724 4.70431 5.09352 5.60447 6.02051 6.49457 6.82991 7.24089 7.58923 8.17433 8.76045 9.48165 10.1965 10.737 11.4909 12.1815 13.0041 13.6987 14.3099 15.5389 16.2984 17.3012 18.8154 19.9776 21.4889 22.9521 24.3179 25.7698 27.8744 30 1.54073 1.60133 1.93644 30 1.67683 30 1.9349 2.00334 2.31811 30 2.08739 30 2.25662 2.31003 2.55933 30 2.36753 30 2.74266 2.79809 3.07682 30 2.87727 30 3.11086 3.18083 3.46164 30 3.25276 30 3.38782 3.45118 3.75707 30 3.53982 30 3.75132 3.80451 4.07681 30 3.87792 30 4.00901 4.07572 4.38952 30 4.15254 30 4.46791 4.54278 4.89433 30 4.62635 30 4.81302 4.88258 5.20171 30 4.98442 30 5.22275 5.27711 5.52997 30 5.34961 30 5.62466 5.6858 5.94908 30 5.75709 30 6.15278 6.22649 6.54202 30 6.31923 30 6.58321 6.6398 6.91686 30 6.71146 30 14.586 30 7.07415 7.12717 7.38434 30 7.19443 30 7.42173 7.47395 7.73494 30 7.56141 30 7.84808 7.91188 8.19861 30 7.9973 30 8.20976 8.28092 8.61231 30 8.36272 30 8.81795 8.86462 9.10161 30 8.92233 30 9.42808 9.47536 9.71821 30 9.54759 30 10.1801 10.2478 10.5655 30 10.3436 30 19.7607 30 10.9269 10.982 11.2458 30 11.0578 30 11.4925 11.5411 11.7943 30 11.6127 30 19.0738 30 12.2831 12.3307 12.592 30 12.4171 30 13.0087 13.0647 13.323 30 13.1499 30 13.8753 13.9532 14.2924 30 14.0299 30 14.6087 14.6694 14.9407 30 14.7643 30 15.2557 15.3138 15.5775 30 15.381 30 16.561 16.6153 16.8633 30 16.6715 30 23.2295 30 17.3708 17.4222 17.7352 30 17.5035 30 18.4439 18.4962 18.7263 30 18.5768 30 20.0736 20.1223 20.3807 30 20.1839 30 21.3324 21.3818 21.6163 30 21.4461 30 22.9813 23.0326 23.2947 30 23.1031 29.9842 24.5916 24.6361 24.8869 30 24.6915 30 26.1086 26.1854 26.5408 30 26.2543 30 27.7375 27.7872 28.0154 30 27.8581 30 1.01009 1.16878 1.62056 30 1.95882 2.01694 2.29033 30 2.09289 30 10.0857 30 1.23968 1.59588 1.95813 2.68865 3.33698 4.36494 5.30889 30 2.34172 2.4015 2.67778 30 2.48929 30 2.83355 2.89014 3.16133 30 2.96028 30 3.9166 3.96583 4.20466 30 4.04867 30 11.5495 30 5.039 5.08635 5.33648 30 5.15562 30 12.3246 30 7.54861 7.59984 7.86098 30 7.68385 30 1.47593 1.93979 2.38123 2.87581 3.42079 3.87989 4.27893 4.60641 5.04171 5.5483 6.33557 6.81552 7.17998 7.7111 8.41563 9.0669 9.8262 10.513 11.3313 12.0991 12.9581 13.8411 15.0038 15.9388 16.8891 17.9388 19.1524 20.5833 22.0569 24.0462 26.1971 28.3155 30 2.68801 2.7516 3.04524 30 2.83213 30 3.15406 3.21154 3.47327 30 3.28704 30 3.6772 3.73277 4.01736 30 3.8131 30 4.25491 4.30727 4.55985 30 4.37836 30 4.74265 4.79618 5.05655 30 4.87027 30 5.16741 5.22317 5.45716 30 5.30388 30 5.51658 5.5677 5.82074 30 5.64791 30 5.98158 6.04273 6.31913 30 6.12291 30 14.343 30 6.52398 6.57542 6.80597 30 6.64121 30 7.36974 7.42103 7.66965 30 7.48446 30 14.5121 30 7.88711 7.94491 8.2329 30 8.03439 30 8.28094 8.32644 8.5627 30 8.38818 30 8.85635 8.91116 9.17689 30 8.98284 30 9.62252 9.67681 9.90558 30 9.74605 30 10.3339 10.399 10.7031 30 10.4824 30 11.1671 11.2147 11.4839 30 11.2933 30 11.9248 11.9752 12.2355 30 12.0436 30 12.8326 12.8786 13.127 30 12.9436 30 13.6899 13.7536 14.0366 30 13.8232 30 14.6558 14.7108 14.9566 30 14.7991 30 15.6566 15.7099 15.9793 30 15.771 30 16.9879 17.0495 17.348 30 17.1498 30 18.0707 18.1265 18.4105 30 18.2112 30 19.1835 19.2403 19.5201 30 19.3192 30 20.4283 20.4746 20.7077 30 20.5503 30 21.8905 21.9491 22.2268 30 22.0159 30 23.6501 23.7136 23.9898 30 23.7935 29.9991 25.509 25.5652 25.8296 30 25.6365 30 28.1081 28.1631 28.4454 30 28.2464 30 1.71923 2.00692 2.39927 2.70502 3.01693 3.38109 3.79881 4.31163 4.75991 5.25295 5.84542 6.78361 7.36055 7.96692 8.60303 9.25621 10.2556 11.405 13.0825 14.6308 17.7348 23.4086 30 2.19206 2.25829 2.54212 30 2.33692 30 2.59692 2.64108 2.85727 30 2.71427 30 2.91301 2.96118 3.2092 30 3.01612 30 3.23603 3.29805 3.60638 30 3.37687 30 12.1006 30 3.61393 3.6753 3.96715 30 3.76072 30 4.04851 4.10051 4.3671 30 4.17488 30 4.58373 4.63659 4.88488 30 4.7141 30 5.05327 5.1013 5.34638 30 5.17875 30 5.57168 5.62193 5.87639 30 5.70392 30 6.19763 6.26227 6.54826 30 6.35956 30 7.19642 7.27684 7.64462 30 7.38382 30 7.8159 7.88106 8.18561 30 7.97091 30 8.47189 8.52189 8.77336 30 8.59391 30 16.0401 30 9.16617 9.20676 9.41404 30 9.27695 30 9.88641 9.96599 10.3101 30 10.0666 30 20.3303 30 11.0052 11.0649 11.3138 30 11.1561 30 12.3223 12.3844 12.6816 30 12.4582 30 14.3217 14.3791 14.6293 30 14.4452 30 16.2806 16.325 16.5694 30 16.4014 30 20.7929 20.8451 21.0957 30 20.9239 30 1.97002 30 2.22877 3.23371 30 2.49601 30 2.7723 4.01924 30 3.0583 3.39386 3.68881 4.06006 4.45924 4.80658 5.19409 5.65986 6.04809 6.57274 6.9625 7.39893 7.99118 8.80185 9.58982 10.183 11.0723 12.1505 13.3054 14.4081 15.7296 17.0615 19.0481 20.6769 22.9564 24.6101 30 3.91032 3.96882 4.22785 30 4.05312 30 12.1264 30 4.22245 4.2894 4.56979 30 4.37214 30 4.61618 4.6734 4.94511 30 4.74908 30 5.04062 5.09027 5.30862 30 5.15376 30 5.41089 5.45899 5.69169 30 5.53218 30 5.8251 5.87675 6.13952 30 5.93903 30 6.32458 6.37971 6.6756 30 6.45362 30 6.74233 6.81714 7.15292 30 6.90639 30 16.5475 30 7.30905 7.36263 7.61619 30 7.4375 30 7.73178 7.78422 8.02056 30 7.85315 30 8.20697 8.25155 8.49999 30 8.31389 30 8.85508 8.8959 9.12442 30 8.97268 30 9.74887 9.80503 10.086 30 9.8821 30 10.6257 10.6634 10.897 30 10.7308 30 11.2916 11.3666 11.6866 30 11.4479 30 12.3003 12.3618 12.6334 30 12.428 30 19.9632 30 13.5418 13.6027 13.912 30 13.6947 30 14.8981 14.9524 15.2279 30 15.0352 30 16.223 16.2794 16.5615 30 16.3348 30 17.8568 17.9255 18.2489 30 18.0008 30 19.5658 19.6154 19.8855 30 19.6727 30 22.2665 22.3301 22.6148 29.994 22.4064 29.9688 24.6655 24.7271 25.0328 30 24.8241 30 28.4505 28.5087 28.7718 30 28.5725 30 3.35469 3.61415 4.19129 4.87709 5.66456 6.857 30 4.36078 4.41805 4.67556 30 4.48527 30 5.18357 5.23489 5.48104 30 5.2984 30 6.30444 6.34835 6.60549 30 6.4269 30 14.2499 30 7.97541 8.04793 8.36113 30 8.1418 30 3.66228 3.92442 4.25418 4.49276 4.97705 5.37219 5.66212 6.02869 6.36561 6.78217 7.31602 7.85909 8.59722 9.21139 9.85969 10.821 11.472 12.6609 14.1526 15.3488 17.8149 19.4816 22.3126 30 4.52169 4.58008 4.8597 30 4.64959 30 4.88049 4.92839 5.20268 30 4.99629 30 5.14099 5.19556 5.41976 30 5.26574 30 12.139 30 5.67229 5.76001 6.20012 30 5.84876 30 6.10843 6.18006 6.48341 30 6.26248 30 6.43006 6.48647 6.73384 30 6.56429 30 14.1666 30 6.83878 6.89179 7.1751 30 6.99443 30 7.21659 7.26711 7.52281 30 7.34627 30 7.68677 7.74499 8.00552 30 7.80715 30 14.9755 30 8.29464 8.35244 8.64134 30 8.44133 30 8.91969 8.98488 9.27293 30 9.05455 30 9.78131 9.83751 10.1224 30 9.91784 30 10.5101 10.5546 10.8045 30 10.6231 30 11.2928 11.384 11.7631 30 11.4859 30 12.4823 12.5506 12.8485 30 12.6347 30 13.311 13.3591 13.6345 30 13.435 30 21.474 30 14.883 14.9418 15.2238 30 15.0146 30 16.9948 17.0362 17.2544 30 17.1033 30 18.8439 18.8983 19.1794 30 18.9741 30 23.4063 23.4716 23.7522 30 23.5533 29.9995 27.6647 27.721 28.044 30 27.8033 30 3.98193 5.00314 30 4.31463 4.65692 5.08164 5.59994 6.04881 6.53122 7.23914 8.03551 8.58667 9.67611 10.956 12.2564 13.2582 15.8189 18.9204 30 5.259 5.31833 5.61498 30 5.41304 30 5.72991 5.78573 6.04363 30 5.8574 30 6.30971 6.38603 6.71231 30 6.48037 30 6.81685 6.88752 7.21132 30 6.96222 30 7.3676 7.42545 7.69401 30 7.50129 30 8.18787 8.24602 8.53603 30 8.31455 30 9.13045 9.17457 9.42811 30 9.23142 30 16.053 30 9.79716 9.85625 10.1472 30 9.94651 30 11.1569 11.2093 11.4715 30 11.2908 30 12.8454 12.9025 13.1686 30 12.9847 30 14.7021 14.7617 15.0404 30 14.83 30 16.2725 16.331 16.6233 30 16.3902 30 21.3484 21.399 21.6387 30 21.4692 29.9981 4.66149 6.00196 29.7521 5.02377 5.28995 5.77767 6.23779 6.69921 7.22259 7.66553 8.22097 8.71346 9.33602 10.1053 10.7918 11.8632 12.7321 13.682 14.5566 15.4381 16.7069 17.9868 19.1327 20.7293 22.4205 24.5001 27.7595 30 6.22746 6.28853 6.55413 30 6.36214 30 6.76087 6.82259 7.09674 30 6.9001 30 7.26624 7.3111 7.5615 30 7.37197 30 14.3233 30 7.77523 7.83214 8.10224 30 7.92049 30 8.35539 8.42371 8.71169 30 8.50233 30 8.84883 8.90725 9.1774 30 8.98646 30 9.471 9.52765 9.76334 30 9.59727 30 10.026 10.0926 10.3499 30 10.1783 30 10.7324 10.801 11.0637 30 10.8844 30 11.6132 11.6669 11.9397 30 11.7284 30 12.4073 12.4627 12.7528 30 12.5262 30 20.1045 30 13.6635 13.7151 13.9823 30 13.7818 30 14.6992 14.7585 15.0465 30 14.8406 30 15.851 15.9087 16.1497 30 15.9853 30 23.4219 29.9663 16.9319 16.9828 17.2247 30 17.0618 30 18.0436 18.1029 18.4003 30 18.1996 30 19.6896 19.7422 20.0019 30 19.8253 30 21.4146 21.4743 21.78 30 21.5595 30 23.026 23.0731 23.2897 30 23.1414 29.9942 25.4041 25.469 25.7647 30 25.5414 30 28.1464 28.1934 28.443 30 28.2585 30 5.40291 5.88805 6.28549 6.67023 7.16172 7.57503 7.99307 8.37864 8.78685 9.34424 9.77698 10.379 10.7714 11.3904 12.071 12.6018 13.1601 13.7593 14.3631 14.934 15.7592 16.4799 16.9989 17.7042 18.6743 19.1466 19.8324 20.612 21.2539 21.974 23.3289 24.3631 25.8494 26.9615 28.0939 29.4284 30 6.60983 6.6634 6.95475 30 6.74282 30 7.02243 7.0792 7.32296 30 7.14259 30 7.42216 7.48649 7.76955 30 7.57313 30 16.1754 30 7.93323 7.98586 8.27037 30 8.06776 30 8.36342 8.41396 8.64765 30 8.49425 30 8.79891 8.84698 9.13101 30 8.9006 30 9.20092 9.25268 9.50584 30 9.33163 30 9.62692 9.69509 9.98789 30 9.77804 30 10.2092 10.2658 10.5347 30 10.3539 30 10.6619 10.7206 10.9909 30 10.8095 30 19.2733 30 11.2923 11.3607 11.6534 30 11.4273 30 11.7037 11.7726 12.0863 30 11.8559 30 12.3535 12.4018 12.65 30 12.4717 30 13.0693 13.1261 13.3939 30 13.2324 30 13.6284 13.6801 13.9442 30 13.7691 30 14.2174 14.2717 14.5356 30 14.3417 30 14.8505 14.8964 15.1448 30 14.977 30 15.4896 15.5499 15.8232 30 15.6321 30 16.095 16.1501 16.4178 30 16.2305 30 16.9721 17.045 17.3601 30 17.1497 30 17.74 17.7926 18.0502 30 17.8638 30 18.2941 18.3525 18.656 30 18.4311 30 19.0488 19.1093 19.3766 30 19.1908 30 20.0902 20.1384 20.451 30 20.2144 30 20.5985 20.6616 20.9629 29.9849 20.7686 30 21.3384 21.3777 21.6084 30 21.44 30 22.182 22.2275 22.4466 30 22.2972 30 22.8787 22.9346 23.2081 30 23.0277 29.9943 23.6627 23.722 24.0325 30 23.7945 29.9999 25.1451 25.2178 25.5457 30 25.3084 30 26.2833 26.347 26.624 30 26.425 30 27.9301 27.9756 28.2319 30 28.0422 30 29.1717 29.2169 29.4584 30 29.277 30 5.80055 6.13332 6.41048 6.64621 7.13842 7.46609 7.71674 8.07299 8.38532 8.83214 9.14897 9.56177 10.0985 10.5068 10.9187 11.3467 11.9705 12.6484 13.1809 14.0224 14.724 15.6261 16.1776 16.9037 17.7379 18.2737 19.2687 20.5966 21.5688 22.3605 23.8205 25.1004 26.6321 29.0851 30 6.54243 6.59535 6.83585 30 6.66979 30 6.8292 6.87928 7.1139 30 6.945 30 7.07328 7.11316 7.32698 30 7.18657 30 7.58348 7.63911 7.87694 30 7.71209 30 14.9458 30 7.92355 7.97768 8.22726 30 8.05771 30 8.18393 8.23896 8.51033 30 8.31849 30 8.55436 8.59145 8.81651 30 8.66194 30 8.87949 8.94016 9.23867 30 9.03834 30 9.34523 9.39613 9.64992 30 9.47275 30 9.67592 9.7425 10.0512 30 9.82659 30 10.1074 10.157 10.3973 30 10.2349 30 10.6693 10.7332 10.9943 30 10.806 30 11.0976 11.1677 11.454 30 11.2636 30 11.5304 11.6035 11.9261 30 11.7076 30 11.981 12.0394 12.3099 30 12.1163 30 12.6391 12.6961 12.9558 30 12.7672 30 13.3565 13.4009 13.6241 30 13.4618 30 13.9218 13.9818 14.2736 30 14.0745 30 14.8182 14.8627 15.1147 30 14.9209 30 15.5688 15.6248 15.8887 30 15.6837 30 16.5385 16.5934 16.8439 30 16.6683 30 17.1342 17.1833 17.4229 30 17.2443 30 17.9217 17.9686 18.2013 30 18.0501 30 18.8317 18.888 19.1747 30 18.9556 30 19.4192 19.4789 19.7772 30 19.5596 30 20.5171 20.5686 20.8346 30 20.6392 30 21.998 22.0506 22.3209 30 22.121 30 23.0946 23.1511 23.4145 30 23.2409 29.9998 23.9963 24.0467 24.31 30 24.1241 29.9903 25.682 25.7292 25.9904 30 25.8036 30 27.1876 27.2624 27.6148 30 27.3556 30 29.0294 29.0766 29.3242 30 29.1501 30 6.21859 6.46932 6.70961 6.94868 7.40369 7.65051 8.08227 8.45548 8.71573 9.1171 9.7145 10.3332 10.9808 11.7617 12.6311 13.6525 14.7588 15.2927 16.3837 18.0784 20.0939 23.2 30 6.96422 7.01149 7.27744 30 7.08128 30 7.22414 7.28364 7.56857 30 7.35291 30 15.2544 30 7.48354 7.54946 7.82607 30 7.63121 30 7.97958 8.02814 8.2694 30 8.10144 30 8.25003 8.30807 8.58406 30 8.39743 30 8.72559 8.78571 9.06659 30 8.85668 30 9.13936 9.20075 9.49313 30 9.27059 30 9.42949 9.4985 9.7946 30 9.56564 30 9.87968 9.94782 10.2607 30 10.044 30 10.5564 10.6246 10.9181 30 10.7201 30 11.2667 11.3236 11.5902 30 11.3891 30 12.0216 12.0937 12.4419 30 12.17 30 12.95 13.0002 13.2784 30 13.0794 30 14.0113 14.0511 14.2954 30 14.1208 30 15.3035 15.3718 15.6629 30 15.4682 30 16.7733 16.8375 17.166 30 16.9133 30 17.5154 17.5689 17.8577 30 17.6384 30 19.1173 19.1778 19.4234 30 19.2638 30 21.9316 21.9792 22.2163 30 22.0457 30 26.2612 26.327 26.6063 30 26.4123 30 6.65924 30 7.12508 7.31941 7.76003 8.31535 9.029 9.693 10.6365 12.4562 30 7.95523 8.00741 8.2662 30 8.07444 30 8.50702 8.55411 8.79591 30 8.62262 30 9.23505 9.2915 9.55937 30 9.36747 30 10.2435 10.2967 10.5679 30 10.3787 30 11.2908 11.3445 11.6246 30 11.4194 30 13.1016 13.1564 13.4025 30 13.2316 30 7.61917 7.87809 8.31568 8.74503 9.40032 9.98758 10.6747 11.1264 12.0022 13.5814 16.1005 30 8.63606 8.70482 8.99824 30 8.80314 30 9.16009 9.23646 9.55458 30 9.33735 30 9.68489 9.73489 9.98092 30 9.79676 30 10.5098 10.5811 10.8772 30 10.6805 30 11.279 11.334 11.615 30 11.4049 30 12.2244 12.273 12.5013 30 12.3544 30 12.8793 12.9272 13.195 30 12.9831 30 14.2504 14.3093 14.5739 30 14.3929 30 17.2978 17.374 17.7239 30 17.4566 30 8.14516 8.45118 8.78714 9.22484 9.63447 10.1163 10.5048 10.7788 11.3131 11.8026 12.2826 12.7617 13.4293 14.281 15.2068 16.1187 17.5927 19.6995 23.007 30 8.83669 8.88324 9.099 30 8.96456 30 9.19821 9.25793 9.53872 30 9.33025 30 9.67188 9.74704 10.0752 30 9.85676 30 10.1181 10.171 10.455 30 10.2371 30 10.6471 10.7072 10.9552 30 10.7905 30 11.0771 11.1289 11.3779 30 11.1894 30 11.3825 11.4385 11.7073 30 11.5134 30 11.9831 12.0441 12.334 30 12.1483 30 12.5404 12.5977 12.8494 30 12.6818 30 13.0939 13.1412 13.3882 30 13.2149 30 13.6543 13.7125 13.961 30 13.787 30 21.2714 29.8588 14.4503 14.503 14.7754 30 14.5699 30 15.4962 15.5573 15.8421 30 15.626 30 16.6813 16.7325 16.9763 30 16.8149 30 17.912 17.964 18.2352 30 18.0277 30 20.0928 20.1546 20.4438 30 20.2418 30 23.9618 24.0094 24.2549 30 24.0911 30 8.70745 9.05385 9.38728 9.87465 10.4491 11.0038 11.6126 12.0821 13.0556 13.9875 15.4743 18.6891 30 9.45963 9.52453 9.82438 30 9.61459 30 9.8295 9.88537 10.1517 30 9.95521 30 17.5649 30 10.3765 10.4296 10.6959 30 10.5012 30 11.0324 11.0944 11.4086 30 11.1693 30 11.6793 11.7458 12.0428 30 11.8269 30 12.4079 12.4664 12.7626 30 12.5399 30 12.9857 13.0362 13.2793 30 13.1144 30 14.2409 14.2922 14.5364 30 14.3741 30 15.5412 15.5994 15.8899 30 15.6748 30 17.9558 18.0079 18.2447 30 18.0663 30 9.31143 9.67127 10.1576 10.6719 11.1669 11.9223 12.8792 14.7981 30 10.2314 10.2917 10.5886 30 10.3822 30 10.8313 10.8882 11.1509 30 10.9585 30 11.4946 11.5613 11.856 30 11.6312 30 12.1698 12.2227 12.5082 30 12.3037 30 13.2996 13.3596 13.6376 30 13.4397 30 21.6825 30 15.0285 15.0865 15.38 30 15.1843 30 9.96378 11.5397 30 10.6729 10.9147 11.3506 11.5149 11.8694 12.2728 12.7494 13.1368 13.4169 13.8614 14.3716 14.8354 15.2114 15.728 16.2736 16.7148 17.4592 18.0811 19.1941 19.7618 20.7808 21.6655 22.9674 24.3459 26.4429 28.4905 30 11.6277 11.6691 11.8793 30 11.7432 30 12.1053 12.1677 12.4765 30 12.2256 30 12.2859 12.3432 12.6041 30 12.4306 30 12.677 12.7313 12.9829 30 12.7939 30 13.1242 13.1727 13.4009 30 13.2552 30 13.656 13.7167 14.0047 30 13.794 30 14.0909 14.1543 14.4693 30 14.2493 30 14.4069 14.4535 14.6966 30 14.5336 30 14.9116 14.9624 15.2123 30 15.0303 30 22.2772 30 15.4957 15.5672 15.8982 30 15.6602 30 16.0315 16.0907 16.3702 30 16.1666 30 16.4696 16.5244 16.7868 30 16.6052 30 17.077 17.1279 17.4238 30 17.1765 30 17.7265 17.7882 18.1053 30 17.8722 30 18.2582 18.3073 18.5322 30 18.3846 30 19.1694 19.2137 19.4651 30 19.2803 30 26.4989 30 19.9461 20.0069 20.2958 30 20.068 30 21.3772 21.4341 21.706 29.9477 21.5254 30 22.1307 22.189 22.4743 29.9965 22.2681 29.8907 23.5311 23.5773 23.8473 30 23.6531 29.9999 24.8069 24.8763 25.1685 30 24.9879 30 26.8149 26.8821 27.1637 30 26.9432 30 29.1744 29.2359 29.5253 30 29.3128 30 11.4497 11.6747 11.9321 12.3395 12.5893 12.9261 13.2255 13.696 14.0687 14.4619 14.8893 15.2716 15.8001 16.081 16.5223 17.0849 17.783 18.3235 19.1909 20.1725 21.1786 22.0493 23.4393 24.6705 26.2318 28.0747 30 12.2972 12.3481 12.6199 30 12.4092 30 12.5735 12.6179 12.853 30 12.6869 30 13.0121 13.0734 13.338 30 13.161 30 13.2818 13.3399 13.6201 30 13.4099 30 13.6464 13.7286 14.067 30 13.8326 30 13.9715 14.0257 14.306 30 14.1154 30 14.4843 14.549 14.8206 30 14.6375 30 14.8924 14.943 15.1917 30 15.0235 30 15.3245 15.3749 15.6401 30 15.449 30 15.7966 15.8753 16.2233 30 15.9652 30 25.6565 30 16.2209 16.2798 16.5221 30 16.3513 30 16.8108 16.8821 17.1773 30 16.9648 30 17.1261 17.1899 17.4472 30 17.2708 30 17.624 17.6803 17.9423 30 17.7549 30 25.4923 30 18.2633 18.3262 18.6245 30 18.408 30 19.0647 19.1115 19.3515 30 19.1759 30 19.692 19.7401 19.9646 30 19.8109 30 20.7121 20.7807 21.0742 30 20.8521 30 21.8891 21.9401 22.2017 29.8686 22.0175 30 29.8686 30 23.1246 23.1847 23.4562 29.9999 23.2608 30 24.2215 24.2808 24.5501 30 24.3566 30 26.0371 26.0796 26.2915 30 26.1412 30 27.7272 27.7741 28.0239 30 27.848 30 12.3084 13.7822 30 13.2683 13.6683 14.2269 14.8134 15.1877 15.9669 16.702 17.4449 18.3425 19.2197 19.8674 20.6 21.4945 22.5188 23.4279 24.5166 26.1109 27.7663 30 14.091 14.1554 14.4116 30 14.2396 30 14.6752 14.7374 15.0315 30 14.7997 30 15.2903 15.3465 15.6319 30 15.4261 30 15.6838 15.7394 15.9766 30 15.8302 30 16.5056 16.5638 16.8803 30 16.6369 30 17.2844 17.3255 17.5747 30 17.3936 30 18.0752 18.1248 18.378 30 18.1868 30 25.2293 30 19.0361 19.0908 19.3405 30 19.1525 30 19.9815 20.0439 20.2922 30 20.1288 30 28.0202 30 20.6841 20.7298 20.9615 30 20.7963 30 21.4837 21.5571 21.8601 29.9977 21.6621 30 22.4678 22.5195 22.7681 29.9273 22.5984 30 23.6067 23.6594 23.9395 30 23.7396 29.9999 24.6296 24.6848 24.9356 30 24.7754 30 25.8713 25.9217 26.1711 30 26.0025 30 27.7287 27.7911 28.0605 30 27.8676 30 29.717 29.7616 30 29.8465 30 14.3566 14.6321 15.1925 15.8515 16.5731 17.4694 17.9603 18.9267 20.301 30 15.675 15.7379 16.0698 30 15.832 30 16.4242 16.4694 16.706 30 16.5326 30 17.3588 17.4152 17.6688 30 17.4893 30 25.0528 30 18.4728 18.5451 18.8652 30 18.6334 30 20.0571 20.1281 20.4887 30 20.1759 30 21.0732 21.1307 21.4008 30 21.2019 30 23.675 23.7262 23.9692 30 23.804 30 15.6129 15.9743 16.4875 17.4264 30 17.0219 17.0857 17.3683 30 17.158 30 18.086 18.1463 18.408 30 18.2315 30 26.3894 30 17.0988 18.5534 30 18.9175 19.1342 19.6289 20.466 30 20.016 20.0901 20.4315 30 20.1684 30 21.0222 21.0825 21.3673 30 21.1591 30 21.2621 21.5272 21.7842 22.0406 22.4827 22.8629 23.2668 23.6816 24.0677 24.7048 25.0896 25.5377 26.0984 26.692 27.214 27.9194 28.5002 29.1083 29.8489 30 22.1108 22.1606 22.4196 30 22.2202 30 22.3806 22.4286 22.6762 29.9992 22.5154 29.996 22.6502 22.7042 22.9466 30 22.7785 29.9999 23.1157 23.1779 23.4448 30 23.2649 30 23.5167 23.5803 23.8479 30 23.6663 29.9998 23.9435 24.01 24.2994 30 24.1008 30 24.3827 24.4359 24.7157 30 24.5127 29.9999 24.7923 24.8531 25.1093 30 24.9462 30 25.47 25.5284 25.7983 30 25.587 30 25.8804 25.9427 26.2369 30 26.0131 30 26.3596 26.4203 26.7025 30 26.4959 30 26.9608 27.02 27.3105 30 27.1074 30 27.5996 27.6498 27.9079 30 27.7205 30 28.1634 28.2308 28.5225 30 28.3093 30 28.9284 28.9852 29.2368 30 29.0718 30 29.5612 29.6282 29.9098 30 29.7191 30 24.5666 24.8338 25.199 25.5586 25.8699 26.2118 26.6538 26.9957 27.3261 27.6231 28.0003 28.4471 28.991 29.4942 29.8794 30 25.4439 25.4942 25.7301 30 25.5685 30 25.8273 25.8813 26.1599 30 25.9666 30 26.2054 26.2648 26.5239 30 26.3456 30 26.5332 26.598 26.8937 30 26.6752 30 26.8938 26.9465 27.1962 30 27.0235 30 27.3606 27.4187 27.7394 30 27.497 30 27.7224 27.7915 28.0944 30 27.8993 30 28.0725 28.1387 28.4199 30 28.2231 30 28.3878 28.4319 28.7165 30 28.4983 30 28.7888 28.8583 29.1534 30 28.9533 30 29.2647 29.3238 29.5867 30 29.4154 30 29.8457 29.9052 30 29.9698 30 
</DataArray>

</PointData>
<CellData Scalars=" CellData">
<DataArray type="Float32" Name="type" NumberOfComponents="1" format="ascii" >
1 2 3 4 3 4 3 4 3 4 3 4 3 4 3 4 3 4 4 3 4 3 4 3 4 3 4 3 4 3 4 3 4 3 4 3 4 3 4 4 3 4 4 3 4 3 4 3 4 3 4 3 4 4 3 4 3 4 3 4 3 4 2 3 4 3 4 3 4 3 4 3 4 3 4 3 4 3 4 3 4 3 4 3 4 3 4 3 4 3 4 4 3 4 3 4 3 4 3 4 3 4 3 4 3 4 4 3 4 3 4 4 3 4 3 4 3 4 3 4 3 4 3 4 4 3 4 3 4 3 4 3 4 3 4 3 4 3 4 3 4 2 3 4 4 2 3 4 3 4 3 4 4 3 4 4 3 4 2 3 4 3 4 3 4 3 4 3 4 3 4 3 4 3 4 4 3 4 3 4 4 3 4 3 4 3 4 3 4 3 4 3 4 3 4 3 4 3 4 3 4 3 4 3 4 3 4 3 4 3 4 3 4 3 4 3 4 3 4 2 3 4 3 4 3 4 3 4 4 3 4 3 4 3 4 3 4 3 4 3 4 3 4 3 4 3 4 4 3 4 3 4 4 3 4 3 4 3 4 3 4 3 4 2 2 2 2 2 3 4 4 3 4 3 4 3 4 3 4 3 4 3 4 3 4 4 3 4 3 4 3 4 3 4 3 4 3 4 3 4 3 4 4 3 4 3 4 3 4 3 4 3 4 3 4 3 4 3 4 2 3 4 3 4 3 4 4 3 4 2 3 4 3 4 3 4 4 3 4 3 4 3 4 4 3 4 3 4 3 4 4 3 4 3 4 3 4 3 4 3 4 3 4 3 4 4 3 4 3 4 3 4 3 4 3 4 2 2 3 4 3 4 3 4 3 4 3 4 3 4 3 4 4 3 4 3 4 3 4 3 4 3 4 3 4 2 2 3 4 3 4 3 4 4 3 4 3 4 3 4 3 4 3 4 3 4 3 4 3 4 4 3 4 3 4 3 4 4 3 4 3 4 3 4 3 4 3 4 3 4 3 4 2 3 4 3 4 3 4 4 3 4 3 4 3 4 3 4 3 4 3 4 3 4 4 3 4 3 4 3 4 3 4 3 4 3 4 3 4 3 4 3 4 3 4 3 4 3 4 3 4 3 4 3 4 3 4 3 4 3 4 3 4 3 4 3 4 3 4 3 4 2 3 4 3 4 3 4 3 4 4 3 4 3 4 3 4 3 4 3 4 3 4 3 4 3 4 3 4 3 4 3 4 3 4 3 4 3 4 3 4 3 4 3 4 3 4 3 4 3 4 3 4 3 4 3 4 3 4 3 4 3 4 3 4 3 4 2 3 4 3 4 4 3 4 3 4 3 4 3 4 3 4 3 4 3 4 3 4 3 4 3 4 3 4 3 4 3 4 3 4 3 4 3 4 3 4 3 4 2 2 3 4 3 4 3 4 3 4 3 4 3 4 2 3 4 3 4 3 4 3 4 3 4 3 4 3 4 3 4 3 4 2 3 4 3 4 3 4 3 4 3 4 3 4 3 4 3 4 3 4 3 4 3 4 4 3 4 3 4 3 4 3 4 3 4 3 4 2 3 4 3 4 4 3 4 3 4 3 4 3 4 3 4 3 4 3 4 3 4 2 3 4 3 4 3 4 3 4 3 4 4 3 4 2 2 3 4 3 4 3 4 3 4 3 4 3 4 3 4 3 4 3 4 4 3 4 3 4 3 4 3 4 3 4 3 4 3 4 4 3 4 3 4 3 4 3 4 3 4 3 4 3 4 2 3 4 3 4 3 4 3 4 3 4 3 4 3 4 3 4 3 4 3 4 4 3 4 3 4 3 4 3 4 4 3 4 3 4 3 4 3 4 3 4 4 3 4 3 4 3 4 3 4 2 2 3 4 3 4 3 4 3 4 3 4 3 4 3 4 4 3 4 3 4 4 3 4 3 4 3 4 3 4 3 4 3 4 3 4 3 4 2 3 4 3 4 3 4 4 3 4 3 4 3 4 3 4 2 3 4 3 4 4 2 2 3 4 3 4 2 3 4 3 4 3 4 3 4 3 4 3 4 3 4 3 4 3 4 3 4 3 4 3 4 3 4 3 4 3 4 3 4 2 3 4 3 4 3 4 3 4 3 4 3 4 3 4 3 4 3 4 3 4 3 4 3 4 
</DataArray>
<DataArray type="Float32" Name="order" NumberOfComponents="1" format="ascii" >
0 1 2 3 2 3 2 3 2 3 2 3 2 3 2 3 2 3 3 2 3 2 3 2 3 2 3 2 3 2 3 2 3 2 3 2 3 2 3 3 2 3 3 2 3 2 3 2 3 2 3 2 3 3 2 3 2 3 2 3 2 3 1 2 3 2 3 2 3 2 3 2 3 2 3 2 3 2 3 2 3 2 3 2 3 2 3 2 3 2 3 3 2 3 2 3 2 3 2 3 2 3 2 3 2 3 3 2 3 2 3 3 2 3 2 3 2 3 2 3 2 3 2 3 3 2 3 2 3 2 3 2 3 2 3 2 3 2 3 2 3 1 2 3 3 1 2 3 2 3 2 3 3 2 3 3 2 3 1 2 3 2 3 2 3 2 3 2 3 2 3 2 3 2 3 3 2 3 2 3 3 2 3 2 3 2 3 2 3 2 3 2 3 2 3 2 3 2 3 2 3 2 3 2 3 2 3 2 3 2 3 2 3 2 3 2 3 2 3 1 2 3 2 3 2 3 2 3 3 2 3 2 3 2 3 2 3 2 3 2 3 2 3 2 3 2 3 3 2 3 2 3 3 2 3 2 3 2 3 2 3 2 3 1 1 1 1 1 2 3 3 2 3 2 3 2 3 2 3 2 3 2 3 2 3 3 2 3 2 3 2 3 2 3 2 3 2 3 2 3 2 3 3 2 3 2 3 2 3 2 3 2 3 2 3 2 3 2 3 1 2 3 2 3 2 3 3 2 3 1 2 3 2 3 2 3 3 2 3 2 3 2 3 3 2 3 2 3 2 3 3 2 3 2 3 2 3 2 3 2 3 2 3 2 3 3 2 3 2 3 2 3 2 3 2 3 1 1 2 3 2 3 2 3 2 3 2 3 2 3 2 3 3 2 3 2 3 2 3 2 3 2 3 2 3 1 1 2 3 2 3 2 3 3 2 3 2 3 2 3 2 3 2 3 2 3 2 3 2 3 3 2 3 2 3 2 3 3 2 3 2 3 2 3 2 3 2 3 2 3 2 3 1 2 3 2 3 2 3 3 2 3 2 3 2 3 2 3 2 3 2 3 2 3 3 2 3 2 3 2 3 2 3 2 3 2 3 2 3 2 3 2 3 2 3 2 3 2 3 2 3 2 3 2 3 2 3 2 3 2 3 2 3 2 3 2 3 2 3 2 3 1 2 3 2 3 2 3 2 3 3 2 3 2 3 2 3 2 3 2 3 2 3 2 3 2 3 2 3 2 3 2 3 2 3 2 3 2 3 2 3 2 3 2 3 2 3 2 3 2 3 2 3 2 3 2 3 2 3 2 3 2 3 2 3 2 3 1 2 3 2 3 3 2 3 2 3 2 3 2 3 2 3 2 3 2 3 2 3 2 3 2 3 2 3 2 3 2 3 2 3 2 3 2 3 2 3 2 3 1 1 2 3 2 3 2 3 2 3 2 3 2 3 1 2 3 2 3 2 3 2 3 2 3 2 3 2 3 2 3 2 3 1 2 3 2 3 2 3 2 3 2 3 2 3 2 3 2 3 2 3 2 3 2 3 3 2 3 2 3 2 3 2 3 2 3 2 3 1 2 3 2 3 3 2 3 2 3 2 3 2 3 2 3 2 3 2 3 2 3 1 2 3 2 3 2 3 2 3 2 3 3 2 3 1 1 2 3 2 3 2 3 2 3 2 3 2 3 2 3 2 3 2 3 3 2 3 2 3 2 3 2 3 2 3 2 3 2 3 3 2 3 2 3 2 3 2 3 2 3 2 3 2 3 1 2 3 2 3 2 3 2 3 2 3 2 3 2 3 2 3 2 3 2 3 3 2 3 2 3 2 3 2 3 3 2 3 2 3 2 3 2 3 2 3 3 2 3 2 3 2 3 2 3 1 1 2 3 2 3 2 3 2 3 2 3 2 3 2 3 3 2 3 2 3 3 2 3 2 3 2 3 2 3 2 3 2 3 2 3 2 3 1 2 3 2 3 2 3 3 2 3 2 3 2 3 2 3 1 2 3 2 3 3 1 1 2 3 2 3 1 2 3 2 3 2 3 2 3 2 3 2 3 2 3 2 3 2 3 2 3 2 3 2 3 2 3 2 3 2 3 2 3 1 2 3 2 3 2 3 2 3 2 3 2 3 2 3 2 3 2 3 2 3 2 3 2 3 
</DataArray>
<DataArray type="Float32" Name="radius" NumberOfComponents="1" format="ascii" >
0.1 0.1 0.1 0.1 0.1 0.1 0.1 0.1 0.1 0.1 0.1 0.1 0.1 0.1 0.1 0.1 0.1 0.1 0.1 0.1 0.1 0.1 0.1 0.1 0.1 0.1 0.1 0.1 0.1 0.1 0.1 0.1 0.1 0.1 0.1 0.1 0.1 0.1 0.1 0.1 0.1 0.1 0.1 0.1 0.1 0.1 0.1 0.1 0.1 0.1 0.1 0.1 0.1 0.1 0.1 0.1 0.1 0.1 0.1 0.1 0.1 0.1 0.1 0.1 0.1 0.1 0.1 0.1 0.1 0.1 0.1 0.1 0.1 0.1 0.1 0.1 0.1 0.1 0.1 0.1 0.1 0.1 0.1 0.1 0.1 0.1 0.1 0.1 0.1 0.1 0.1 0.1 0.1 0.1 0.1 0.1 0.1 0.1 0.1 0.1 0.1 0.1 0.1 0.1 0.1 0.1 0.1 0.1 0.1 0.1 0.1 0.1 0.1 0.1 0.1 0.1 0.1 0.1 0.1 0.1 0.1 0.1 0.1 0.1 0.1 0.1 0.1 0.1 0.1 0.1 0.1 0.1 0.1 0.1 0.1 0.1 0.1 0.1 0.1 0.1 0.1 0.1 0.1 0.1 0.1 0.1 0.1 0.1 0.1 0.1 0.1 0.1 0.1 0.1 0.1 0.1 0.1 0.1 0.1 0.1 0.1 0.1 0.1 0.1 0.1 0.1 0.1 0.1 0.1 0.1 0.1 0.1 0.1 0.1 0.1 0.1 0.1 0.1 0.1 0.1 0.1 0.1 0.1 0.1 0.1 0.1 0.1 0.1 0.1 0.1 0.1 0.1 0.1 0.1 0.1 0.1 0.1 0.1 0.1 0.1 0.1 0.1 0.1 0.1 0.1 0.1 0.1 0.1 0.1 0.1 0.1 0.1 0.1 0.1 0.1 0.1 0.1 0.1 0.1 0.1 0.1 0.1 0.1 0.1 0.1 0.1 0.1 0.1 0.1 0.1 0.1 0.1 0.1 0.1 0.1 0.1 0.1 0.1 0.1 0.1 0.1 0.1 0.1 0.1 0.1 0.1 0.1 0.1 0.1 0.1 0.1 0.1 0.1 0.1 0.1 0.1 0.1 0.1 0.1 0.1 0.1 0.1 0.1 0.1 0.1 0.1 0.1 0.1 0.1 0.1 0.1 0.1 0.1 0.1 0.1 0.1 0.1 0.1 0.1 0.1 0.1 0.1 0.1 0.1 0.1 0.1 0.1 0.1 0.1 0.1 0.1 0.1 0.1 0.1 0.1 0.1 0.1 0.1 0.1 0.1 0.1 0.1 0.1 0.1 0.1 0.1 0.1 0.1 0.1 0.1 0.1 0.1 0.1 0.1 0.1 0.1 0.1 0.1 0.1 0.1 0.1 0.1 0.1 0.1 0.1 0.1 0.1 0.1 0.1 0.1 0.1 0.1 0.1 0.1 0.1 0.1 0.1 0.1 0.1 0.1 0.1 0.1 0.1 0.1 0.1 0.1 0.1 0.1 0.1 0.1 0.1 0.1 0.1 0.1 0.1 0.1 0.1 0.1 0.1 0.1 0.1 0.1 0.1 0.1 0.1 0.1 0.1 0.1 0.1 0.1 0.1 0.1 0.1 0.1 0.1 0.1 0.1 0.1 0.1 0.1 0.1 0.1 0.1 0.1 0.1 0.1 0.1 0.1 0.1 0.1 0.1 0.1 0.1 0.1 0.1 0.1 0.1 0.1 0.1 0.1 0.1 0.1 0.1 0.1 0.1 0.1 0.1 0.1 0.1 0.1 0.1 0.1 0.1 0.1 0.1 0.1 0.1 0.1 0.1 0.1 0.1 0.1 0.1 0.1 0.1 0.1 0.1 0.1 0.1 0.1 0.1 0.1 0.1 0.1 0.1 0.1 0.1 0.1 0.1 0.1 0.1 0.1 0.1 0.1 0.1 0.1 0.1 0.1 0.1 0.1 0.1 0.1 0.1 0.1 0.1 0.1 0.1 0.1 0.1 0.1 0.1 0.1 0.1 0.1 0.1 0.1 0.1 0.1 0.1 0.1 0.1 0.1 0.1 0.1 0.1 0.1 0.1 0.1 0.1 0.1 0.1 0.1 0.1 0.1 0.1 0.1 0.1 0.1 0.1 0.1 0.1 0.1 0.1 0.1 0.1 0.1 0.1 0.1 0.1 0.1 0.1 0.1 0.1 0.1 0.1 0.1 0.1 0.1 0.1 0.1 0.1 0.1 0.1 0.1 0.1 0.1 0.1 0.1 0.1 0.1 0.1 0.1 0.1 0.1 0.1 0.1 0.1 0.1 0.1 0.1 0.1 0.1 0.1 0.1 0.1 0.1 0.1 0.1 0.1 0.1 0.1 0.1 0.1 0.1 0.1 0.1 0.1 0.1 0.1 0.1 0.1 0.1 0.1 0.1 0.1 0.1 0.1 0.1 0.1 0.1 0.1 0.1 0.1 0.1 0.1 0.1 0.1 0.1 0.1 0.1 0.1 0.1 0.1 0.1 0.1 0.1 0.1 0.1 0.1 0.1 0.1 0.1 0.1 0.1 0.1 0.1 0.1 0.1 0.1 0.1 0.1 0.1 0.1 0.1 0.1 0.1 0.1 0.1 0.1 0.1 0.1 0.1 0.1 0.1 0.1 0.1 0.1 0.1 0.1 0.1 0.1 0.1 0.1 0.1 0.1 0.1 0.1 0.1 0.1 0.1 0.1 0.1 0.1 0.1 0.1 0.1 0.1 0.1 0.1 0.1 0.1 0.1 0.1 0.1 0.1 0.1 0.1 0.1 0.1 0.1 0.1 0.1 0.1 0.1 0.1 0.1 0.1 0.1 0.1 0.1 0.1 0.1 0.1 0.1 0.1 0.1 0.1 0.1 0.1 0.1 0.1 0.1 0.1 0.1 0.1 0.1 0.1 0.1 0.1 0.1 0.1 0.1 0.1 0.1 0.1 0.1 0.1 0.1 0.1 0.1 0.1 0.1 0.1 0.1 0.1 0.1 0.1 0.1 0.1 0.1 0.1 0.1 0.1 0.1 0.1 0.1 0.1 0.1 0.1 0.1 0.1 0.1 0.1 0.1 0.1 0.1 0.1 0.1 0.1 0.1 0.1 0.1 0.1 0.1 0.1 0.1 0.1 0.1 0.1 0.1 0.1 0.1 0.1 0.1 0.1 0.1 0.1 0.1 0.1 0.1 0.1 0.1 0.1 0.1 0.1 0.1 0.1 0.1 0.1 0.1 0.1 0.1 0.1 0.1 0.1 0.1 0.1 0.1 0.1 0.1 0.1 0.1 0.1 0.1 0.1 0.1 0.1 0.1 0.1 0.1 0.1 0.1 0.1 0.1 0.1 0.1 0.1 0.1 0.1 0.1 0.1 0.1 0.1 0.1 0.1 0.1 0.1 0.1 0.1 0.1 0.1 0.1 0.1 0.1 0.1 0.1 0.1 0.1 0.1 0.1 0.1 0.1 0.1 0.1 0.1 0.1 0.1 0.1 0.1 0.1 0.1 0.1 0.1 0.1 0.1 0.1 0.1 0.1 0.1 0.1 0.1 0.1 0.1 0.1 0.1 0.1 0.1 0.1 0.1 0.1 0.1 0.1 0.1 0.1 0.1 0.1 0.1 0.1 0.1 0.1 0.1 0.1 0.1 0.1 0.1 0.1 0.1 0.1 0.1 0.1 0.1 0.1 0.1 0.1 0.1 0.1 0.1 0.1 0.1 0.1 0.1 0.1 0.1 0.1 0.1 0.1 0.1 0.1 0.1 0.1 0.1 0.1 0.1 0.1 0.1 0.1 0.1 0.1 0.1 0.1 0.1 0.1 0.1 0.1 0.1 0.1 0.1 0.1 0.1 0.1 0.1 0.1 0.1 0.1 0.1 0.1 0.1 0.1 0.1 0.1 0.1 0.1 0.1 0.1 0.1 0.1 0.1 0.1 0.1 0.1 0.1 0.1 0.1 0.1 0.1 0.1 0.1 0.1 0.1 0.1 0.1 0.1 0.1 0.1 0.1 0.1 0.1 0.1 0.1 0.1 0.1 0.1 0.1 0.1 0.1 0.1 0.1 0.1 0.1 0.1 0.1 0.1 0.1 0.1 0.1 0.1 0.1 0.1 0.1 0.1 0.1 0.1 0.1 0.1 0.1 0.1 0.1 0.1 0.1 0.1 0.1 0.1 0.1 0.1 0.1 0.1 0.1 0.1 
</DataArray>

</CellData>
<Points>
<DataArray type="Float32" Name="Coordinates" NumberOfComponents="3" format="ascii" >