<?xml version="1.0"?><VTKFile type="PolyData" version="0.1" byte_order="LittleEndian">
<PolyData>
<Piece NumberOfLines="4787" NumberOfPoints="20389">
<PointData Scalars=" PointData">
<DataArray type="Float32" Name="time" NumberOfComponents="1" format="ascii" >
0 0.0627243 0.125901 0.189538 0.253641 0.318217 0.383273 0.448816 0.461984 0.528122 0.594764 0.661917 0.675409 0.743187 0.811493 0.880337 0.894171 0.963671 1.03373 1.10435 1.11854 1.18985 1.26175 1.33425 1.34882 1.42204 1.49588 1.57035 1.58532 1.66056 1.73645 1.813 1.82839 1.90576 1.98381 2.06257 2.07841 2.15803 2.23838 2.31947 2.33578 2.41779 2.50057 2.58414 2.60095 2.68549 2.77086 2.85707 2.87441 2.96165 3.04977 3.13878 3.15669 3.24681 3.33786 3.42987 3.44839 3.54157 3.63576 3.73097 3.75014 3.84661 3.94416 4.04281 4.06267 4.16268 4.26383 4.36617 4.38679 4.49058 4.59563 4.70195 4.72337 4.83126 4.9405 5.05112 5.07341 5.18574 5.29952 5.41481 5.43805 5.55518 5.67391 5.79427 5.81854 5.94092 6.06504 6.19094 6.21634 6.34445 6.47447 6.60645 6.63308 6.7675 6.904 7.04268 7.07068 7.21204 7.35572 7.5018 7.53131 7.68037 7.83202 7.98635 8.01754 8.17521 8.33576 8.49932 8.5324 8.69971 8.87028 9.04424 9.07945 9.25767 9.43958 9.62537 9.663 9.85364 10.0485 10.2479 10.2883 10.4932 10.703 10.918 10.9617 11.1832 11.4105 11.6438 11.6913 11.9323 12.1802 12.4353 12.4873 12.7516 13.0242 13.3056 13.363 13.6557 13.9585 14.2721 14.3362 14.664 15.0045 15.3588 15.4314 15.8038 16.1927 16.5998 16.6835 17.1147 17.5681 18.0464 18.1453 18.6571 19.2008 19.7804 19.9011 20.5309 21.2095 21.9453 22.1001 22.9185 23.8213 24.8282 25.0443 26 27.3139 28.8605 29.514 31.5581 34.2302 38.0962 45.1919 64 0.568046 0.771173 0.98249 1.05005 1.05006 1.05006 1.05007 1.24231 1.34789 1.40874 1.40875 1.42468 1.42469 1.4247 1.54855 1.72474 1.93353 2.08174 2.16907 2.2529 2.46375 2.75791 2.81908 2.94015 3.1027 3.20372 3.36709 3.50929 3.72911 3.72913 3.72914 3.84642 3.95892 4.15994 4.28047 4.35603 4.50505 4.9453 5.28507 5.28509 5.6729 5.72512 5.92699 6.14322 6.14324 6.73421 7.41458 7.41461 7.96154 8.75873 8.75877 8.85671 8.9716 9.51801 9.51805 9.88823 9.88828 10.6322 10.6323 10.6324 10.6324 10.9076 11.1215 11.9599 11.9656 11.9657 11.9658 12.1362 12.722 15.2814 20.4862 30 1.64833 1.71314 1.98396 3 1.79037 2.01434 3 1.64834 1.71446 2 2.00108 3 1.79485 1.97155 3 3.2522 3.50796 4 1.64835 1.7108 1.98825 3 1.81131 2.01552 3 1.64836 1.71292 2 2.03125 3 1.81087 2.00418 3 2.59316 2.79572 4 1.86433 1.91744 2 2.18314 3 1.98267 2.15125 3 2.10748 2.30735 3 1.98337 2.03424 2.24765 3 2.1024 2.32224 3 2.05211 2.11647 2.39277 3 2.21073 2.40335 3 2.05212 2.10627 2.39171 3 2.1785 2.36818 3 2.07013 2.12535 2.37788 3 2.19839 2.39184 3 2.07014 2.11605 2.36847 3 2.17619 2.3787 3 2.07015 2.13032 2.43312 3 2.21417 2.41798 3 2.21045 2.26094 2.50892 3 2.33263 2.56763 4 9.70217 9.85797 11 2.41083 2.46435 2.7252 4 2.53451 2.75009 4 2.64948 2.70209 2.95058 4 2.76812 2.97282 4 2.81974 2.87094 3 3.12742 4 2.9457 3.15668 4 3.16789 3.35406 4 2.9204 2.98091 3 3.24863 4 3.04096 3.2419 4 3.06724 3.25138 4 3.01727 3.06493 3.31968 4 3.15129 3.35098 4 3.26202 3.31091 3.58492 4 3.38262 3.55496 4 11.2142 11.4071 12 3.67817 3.73986 4 4.01791 5 3.81672 4.01558 5 4.57665 4.77933 6 3.8211 3.88199 4 4.17154 5 3.96614 4.13546 5 4.15941 4.37591 5 4.01395 4.08972 4.43399 5 4.20292 4.42348 5 4.13437 4.19554 4.47539 5 4.28563 4.49782 5 4.33009 4.39281 4.65839 5 4.46004 4.63481 6 4.50145 4.55889 4.80768 6 4.6371 4.81283 6 4.76826 4.81972 5 5.07959 6 4.8875 5.09064 6 5.2325 5.43813 6 4.76828 4.81169 5 5.04492 6 4.89002 5.09734 6 5.33082 5.53068 6 4.76829 4.82084 5 5.13569 6 4.8615 5.06323 6 5.12882 5.28539 6 4.91165 4.96552 5 5.21725 6 5.04991 5.2495 6 5.10257 5.30182 6 5.04983 5.11337 5.41838 6 5.20246 5.409 6 5.29849 5.36055 5.64111 6 5.43178 5.62944 7 5.44867 5.51507 5.8145 7 5.59885 5.83261 7 5.54327 5.59201 5.84578 7 5.67082 5.88313 7 5.73087 5.78243 6 6.03167 7 5.85132 6.0931 7 6.38781 6.62595 7 6.73729 6.78566 7 7.01335 8 6.85622 7.04911 8 7.52086 7.72122 9 6.73732 6.80879 7 7.11944 8 6.87407 7.09441 8 7.19984 7.41155 8 7.25524 7.32306 7.6396 8 7.39665 7.61904 8 7.32598 7.38421 7.66624 8 7.45386 7.62896 9 7.60189 7.65393 7.87535 9 7.73194 7.91731 9 7.90189 7.96599 8 8.23834 9 8.04772 8.22721 9 8.09817 8.30253 9 7.90192 7.95057 8 8.20072 9 8.01494 8.21972 9 8.0875 8.29358 9 8.74842 8.79253 9 9.03086 10 8.85251 9.07104 10 9.34757 9.51854 10 9.78076 9.84093 10 10.131 11 9.90623 10.0989 11 10.1701 10.3901 11 9.78081 9.83229 10 10.1039 11 9.89844 10.0681 11 10.195 10.3914 11 10.6674 10.7201 10.9598 12 10.8002 11.016 12 12.0813 12.1296 12.3872 13 12.1998 12.3957 13 12.0814 12.1486 12.4307 13 12.2263 12.4048 13 12.2676 12.3183 12.562 13 12.3926 12.6149 13 12.4901 12.5516 12.8082 14 12.6356 12.8103 14 13.6186 13.6758 13.9547 15 13.7466 13.9492 15 13.6187 13.6808 13.9866 15 13.7653 13.9648 15 22.6893 22.8889 24 14.465 14.5286 14.8246 16 14.6144 14.8328 16 14.4651 14.5195 14.7725 16 14.5819 14.7544 16 16.4624 16.5163 16.807 18 16.5902 16.7694 18 16.4626 16.5152 16.7341 18 16.5884 16.8073 17 16.4627 16.5104 16.7334 18 16.5897 16.8143 18 16.4629 16.5244 16.7899 18 16.6092 16.7843 18 17.3491 17.4144 17.7046 19 17.4905 17.7557 19 18.1194 18.1768 18.4972 19 18.2355 18.4221 19 22.4436 22.5118 22.7959 24 22.593 22.82 24 22.4862 22.5515 22.8316 24 22.6473 22.8536 24 22.4867 22.5476 22.8374 24 22.6313 22.8757 24 22.4872 22.5436 22.8265 24 22.6452 22.8515 24 23.9127 23.9814 24 24.2496 25 24.0637 24.2563 25 24.091 24.2828 25 0.784106 0.930016 1.04551 1.04552 1.04698 1.10812 1.19081 1.34709 1.34709 1.43858 1.448 1.44801 1.46066 1.63497 1.65119 1.83447 1.84947 1.95034 1.97897 2.11872 2.11873 2.22646 2.3987 2.53526 2.61907 2.65383 2.65384 2.67981 2.82314 2.82315 2.93395 3.1048 3.10481 3.37423 3.3991 3.56785 3.56786 3.79245 4.1163 4.12815 4.25955 4.40371 4.40373 4.54569 4.73877 4.78975 4.78996 5.07429 5.36869 5.48069 5.59091 5.79223 6.35047 6.68789 7.01884 7.69648 8.10633 8.10636 8.1064 8.42719 9.61694 11.3408 14.518 23 1.67427 1.72565 2 2.00637 3 1.79546 2.11574 3 2.77017 3.01618 4 1.67427 1.72542 2 2.00864 3 1.79872 1.97126 3 2.72823 2.91855 4 1.67599 1.74006 2 2.04301 3 1.82717 2.01883 3 2.45729 2.65569 3 1.74799 1.80628 2 2.08823 3 1.87537 2.07427 3 2.23788 2.44451 3 1.84567 1.90114 2 2.18041 3 1.97505 2.2198 3 2.1297 2.31198 3 2.03135 2.08613 2.3644 3 2.15718 2.36994 3 2.03135 2.07346 2.29705 3 2.14072 2.33005 3 2.14072 2.19352 2.43869 3 2.27346 2.45361 3 2.15201 2.2133 2.484 3 2.29361 2.49555 3 10.4169 10.6094 12 2.15202 2.20303 2.45128 3 2.26715 2.44244 3 2.16719 2.22828 2.51565 3 2.29627 2.49031 3 2.39688 2.45958 2.76146 4 2.52796 2.71233 4 10.5163 10.722 12 2.63846 2.70012 2.99557 4 2.77975 2.99004 4 2.76242 2.82795 3 3.12663 4 2.91202 3.08436 4 3.21891 3.40201 4 2.79773 2.86962 3 3.18878 4 2.96246 3.1546 4 3.17614 3.38622 4 2.97103 3.04753 3.35727 4 3.13723 3.40117 4 2.97104 3.03453 3.37131 4 3.10036 3.32999 4 3.10567 3.16975 3.44301 4 3.24458 3.48054 4 3.32291 3.38414 3.67532 5 3.47126 3.66861 5 3.49699 3.55474 3.84107 5 3.62865 3.7968 5 3.60467 3.66372 3.94817 5 3.72735 3.89602 5 3.64955 3.69808 3.91221 5 3.76253 3.94736 5 3.64956 3.69559 3.97055 5 3.77384 4.02546 5 3.68314 3.75551 4 4.05053 5 3.83822 4.03025 5 4.39773 4.58427 6 3.86976 3.92793 4 4.22516 5 3.99403 4.19658 5 4.09817 4.31455 5 3.86977 3.92567 4 4.17856 5 4.01341 4.21371 5 4.13448 4.31359 5 4.01549 4.05917 4.28617 5 4.11898 4.32764 5 4.24283 4.30059 4.56521 5 4.37364 4.61575 6 4.24285 4.30948 4.62095 6 4.42237 4.61366 5 4.64265 4.69671 4.94987 6 4.77616 4.95728 6 4.87704 4.93128 5 5.18857 6 5.02501 5.18935 6 5.13713 5.35707 6 4.87706 4.91726 5 5.14031 6 5.0094 5.22498 6 5.15534 5.39299 6 5.19547 5.24617 5.52124 6 5.30845 5.49771 6 5.68681 5.74547 5.99448 7 5.82073 6 7 5.88477 5.93753 6 6.19171 7 6.02368 6.20671 7 6.12299 6.3066 7 6.10602 6.17742 6.44953 7 6.26487 6.45297 7 14.6915 14.8813 16 6.10604 6.1761 6.4982 7 6.26314 6.49592 7 6.32836 6.38256 6.64813 7 6.4389 6.62299 8 13.4256 13.6016 14 6.6385 6.6969 7 7.04028 8 6.76829 6.9783 8 7.47027 7.6888 8 6.72199 6.78947 7 7.05696 8 6.88317 7.07011 8 7.36862 7.53531 8 6.72235 6.76662 7 7.03619 8 6.84475 7.0333 8 7.42026 7.58179 8 7.20166 7.27956 7.61473 9 7.37713 7.58314 9 7.72581 7.79457 8 8.0897 9 7.90076 8.09974 9 8.33225 8.54203 9 7.93384 7.99728 8 8.29655 9 8.07797 8.25214 9 8.0818 8.27458 9 8.1438 8.2064 8.47809 9 8.27638 8.51797 9 8.54212 8.59484 8.88354 10 8.67846 8.87105 10 10.645 10.7018 10.9398 12 10.7748 11.0135 12 11.6413 11.7 11.9818 13 11.7736 11.9894 13 14.544 14.6056 14.8734 16 14.6722 14.8921 16 17.9499 18.0092 18.3006 19 18.0804 18.3735 19 17.9504 18.0149 18.2923 19 18.0911 18.3518 19 17.9509 17.9972 18 18.2575 19 18.0698 18.2529 19 18.0738 18.2648 19 1.00564 1.17731 1.2816 1.38129 1.52699 1.58596 1.74062 1.91502 2.00029 2.06913 2.15609 2.1561 2.22844 2.2453 2.30202 2.45502 2.59583 2.74592 2.74593 2.81601 2.95902 2.95903 3.10553 3.10863 3.18421 3.36343 3.40582 3.65007 3.65008 3.82305 3.88072 4.1601 4.19658 4.43667 4.56092 4.6011 4.90081 5.21438 5.39513 5.55507 5.55509 5.5551 5.58559 5.60054 5.64768 6.03436 6.48775 6.5212 6.53604 6.87484 7.40983 7.42152 7.90553 8.089 8.28045 8.4856 8.50345 8.50348 8.7653 9.02421 9.56812 9.56815 9.56819 10.2464 10.5476 11 11.2142 12.5103 14.2275 16.7784 21.8582 32 2.17574 2.22783 2.49664 3 2.30476 2.52796 3 10.1106 10.3079 11 2.29387 2.34282 2.62277 3 2.43379 2.60493 4 2.46728 2.52466 2.80336 4 2.58539 2.80336 4 2.53772 2.59558 2.89433 4 2.67268 2.84395 4 2.7232 2.77428 3 3.04264 4 2.85015 3.03109 4 3.37854 3.56461 4 2.93368 2.99079 3 3.25265 4 3.08243 3.248 4 3.09621 3.27779 4 3.03711 3.10161 3.37653 4 3.19132 3.3704 4 3.12087 3.17509 3.42434 4 3.25586 3.48624 4 3.22704 3.29565 3.59039 4 3.39413 3.5689 4 3.22705 3.27365 3.51631 4 3.33989 3.55323 4 3.31564 3.35596 3.60803 4 3.41378 3.62527 4 3.33634 3.38482 3.62199 4 3.45429 3.63907 4 3.40604 3.48558 3.78458 5 3.57535 3.76288 5 3.59496 3.65595 3.96772 5 3.71997 3.9106 5 3.76996 3.83863 4 4.16274 5 3.93066 4.1272 5 4.2058 4.39311 5 3.95776 4.00782 4.267 5 4.08695 4.30391 5 3.95777 4.00715 4.23623 5 4.09477 4.26958 5 4.04593 4.1154 4.39205 5 4.20435 4.4087 5 4.22676 4.26664 4.48707 5 4.33884 4.59325 6 4.22677 4.28069 4.51797 5 4.34817 4.59868 5 11.3477 11.5252 12 4.41337 4.45779 4.70163 6 4.53436 4.70841 5 4.41735 4.47589 4.76076 6 4.54146 4.7086 6 12.2755 12.5007 13 4.51419 4.57206 4.83391 6 4.63565 4.84114 6 4.74541 4.80338 5 5.0775 6 4.87893 5.05038 6 5.2694 5.46705 6 4.80044 4.84653 5 5.08323 6 4.93043 5.12882 6 5.2381 5.43038 6 5.12011 5.17202 5.41413 6 5.23885 5.44339 6 5.12012 5.18177 5.46179 6 5.24728 5.44578 6 5.34932 5.39653 5.63064 6 5.45236 5.64063 7 5.42628 5.47482 5.73375 7 5.56806 5.76772 7 5.80322 5.85135 6 6.10943 7 5.91493 6.21135 7 6.17128 6.37738 7 5.85297 5.91826 6 6.19237 7 6.02524 6.21404 7 6.16271 6.33928 7 6.18349 6.23288 6.45019 7 6.31541 6.49158 7 6.35682 6.41309 6.67326 7 6.49388 6.68675 8 6.41321 6.47923 6.79687 8 6.5609 6.76332 8 6.8395 6.88114 7 7.1131 8 6.95461 7.14755 8 7.16481 7.34578 8 7.29695 7.34701 7.64654 8 7.41198 7.6497 8 7.56649 7.61368 7.85771 9 7.69358 7.87413 9 7.80888 7.87295 8 8.17137 9 7.94825 8.13897 9 8.15117 8.34888 9 7.80891 7.87575 8 8.18865 9 7.96646 8.16959 9 8.16886 8.36588 9 7.80893 7.86383 8 8.1139 9 7.93987 8.11744 9 8.18276 8.44623 9 7.85558 7.92768 8 8.26102 9 8.0131 8.24507 9 8.11985 8.30993 9 7.87849 7.93164 8 8.19425 9 8.00843 8.22869 9 8.11392 8.33142 9 7.95099 8.00947 8.29386 9 8.10587 8.3081 9 8.55945 8.62242 8.8881 10 8.69044 8.92006 10 9.36522 9.41899 9.66375 10 9.49205 9.68222 11 9.39058 9.43987 9.68372 10 9.51641 9.68086 11 9.98367 10.0485 10.3546 11 10.1187 10.31 11 11.008 11.057 11.3107 12 11.1346 11.3178 12 12.0033 12.0574 12.3348 13 12.1326 12.3318 13 12.4078 12.4631 12.7256 14 12.5478 12.7344 14 12.849 12.9016 13 13.1613 14 12.9546 13.1374 14 13.1014 13.2908 14 13.3464 13.3928 13.6279 14 13.4522 13.6729 15 13.391 13.4565 13.7453 15 13.5459 13.7742 15 22.3636 22.5249 23 13.3911 13.4351 13.6378 14 13.5005 13.7181 15 14.0731 14.1094 14.3449 15 14.169 14.3686 15 20.8146 21.0281 22 14.8065 14.8652 15 15.1428 16 14.9395 15.1212 16 15.1647 15.3837 16 16.6141 16.6764 16.9456 18 16.7696 16.9797 18 16.6142 16.6666 16.947 18 16.7534 16.9439 18 16.6143 16.6874 16.9743 18 16.7683 16.9824 18 19.7934 19.8399 20 20.0654 21 19.9253 20.1466 21 20.2714 20.4656 21 21.9323 21.9833 22 22.235 23 22.0578 22.2611 23 22.0821 22.2731 23 28.2031 28.255 28.5155 29 28.3273 28.5284 29 1.23292 1.42321 1.47451 1.58776 1.61858 1.61858 1.70938 1.85411 1.91122 1.98372 2.10364 2.13203 2.1618 2.16181 2.26322 2.31666 2.48213 2.48214 2.67078 2.72943 2.77607 2.87494 2.93363 2.98815 2.99359 3.26452 3.32012 3.32013 3.42819 3.52858 3.55363 3.76841 4.00345 4.00766 4.22087 4.43731 4.50808 4.59785 4.66614 4.66616 5.04635 5.12826 5.39702 5.59223 5.59224 5.81576 6.01384 6.28145 6.61961 7.18763 7.30535 7.30538 7.42165 7.98761 8.18285 8.47726 8.47729 9.13882 9.2866 9.72433 9.78412 9.78543 10.3071 10.3072 11.4165 11.9992 12.3827 13.4728 13.4729 16.1166 21.923 30 1.98292 2.04403 2.31805 3.47451 2.13299 2.32691 3.47451 2.71459 2.77241 3.06282 4.13203 2.8554 3.07326 4.13203 2.92205 2.98156 3.25074 4.31666 3.05659 3.23389 4.31666 3.10879 3.17658 3.47981 4 3.26589 3.43439 4 3.32263 3.37987 3.66556 5 3.47565 3.65489 4 3.68488 3.7461 4 4.07819 5 3.81164 4.0215 5 4.29662 4.49251 5 4.06737 4.13885 4.46612 5 4.23099 4.43681 5 4.87249 4.93585 5.00766 5.23241 6.00766 5.00036 5.18958 6.00766 5.10366 5.33274 6.00766 5.57974 5.63996 5.8934 7 5.72248 5.89426 7 9.27587 9.33042 9.58726 10 9.42345 9.61258 10 10.1115 10.1645 10.431 11 10.2398 10.4128 11 12.2395 12.3015 12.6053 13 12.3764 12.5792 14 20.849 21.0111 22 14.2344 14.2851 14.5416 15 14.3655 14.5723 15 1.46627 1.63798 1.79536 1.82028 1.82028 1.90496 1.954 1.95401 2.03177 2.036 2.08321 2.12703 2.26889 2.2689 2.28854 2.46265 2.48637 2.68094 2.70825 2.90819 2.91419 3.0444 3.17138 3.18219 3.33357 3.45442 3.64373 3.70859 3.90724 3.9792 4.18189 4.33739 4.44272 4.44434 4.51569 4.72466 4.80301 4.84116 4.89645 4.96576 5.11156 5.11157 5.12327 5.21587 5.41859 5.5483 5.69959 5.89428 5.99215 5.99216 6.24142 6.50393 6.68079 6.6808 6.69784 6.69785 6.69787 7.02464 7.10673 7.32443 7.56916 7.56918 7.6935 7.84067 8.0516 8.16553 8.16554 8.16556 8.25148 8.64762 8.7055 8.93618 8.9362 8.93622 9.31779 9.76785 9.81601 10.2844 10.5976 11.054 11.054 11.4078 11.9849 12.3763 12.4015 12.7392 13.3361 13.4617 13.4617 13.4617 13.4618 13.7615 13.9787 14.4161 15.2759 15.3233 15.759 15.759 16.7806 16.8184 16.8184 16.9536 18.0316 18.0316 18.4036 19.3582 19.3583 20.1917 20.9055 21.639 23.8125 25.392 25.7384 26 27.7872 33.5142 53 2.15647 2.23099 2.53814 3 2.30313 2.48792 3 2.1825 2.24912 2.5375 3 2.35139 2.55491 3 2.18251 2.24163 2.53523 3 2.32147 2.49941 3 2.271 2.3158 2.54805 3 2.3959 2.5929 3 2.32228 2.38339 2.66016 3 2.45266 2.62962 3 2.32229 2.37023 2.58829 3 2.44512 2.63668 3 2.40362 2.45452 2.68987 3 2.52539 2.69865 4 2.40804 2.45822 2.72397 4 2.53496 2.72529 3 2.45744 2.50727 2.76477 4 2.58079 2.80361 4 2.5033 2.56542 2.87406 4 2.63995 2.84216 4 2.65184 2.70525 2.94466 4 2.7832 3.01892 4 2.65185 2.70369 2.97669 4 2.76577 2.94294 4 2.67242 2.73822 2.99957 4 2.81188 3.03431 4 10.4868 10.6928 12 2.85492 2.93425 3 3.24834 4 3.04316 3.22498 4 3.14687 3.32636 4 2.87979 2.92886 3 3.17524 4 3.00296 3.22789 4 3.11466 3.32254 4 3.11266 3.17332 3.46084 4 3.24987 3.48341 4 3.32909 3.38222 3.6653 4 3.43871 3.64563 5 3.46607 3.53223 3.82644 5 3.62049 3.82386 5 3.59977 3.67277 4 4.01721 5 3.75039 3.95844 5 4.70152 4.869 6 3.61115 3.67284 3.95659 5 3.77486 3.97993 5 12.8179 12.9834 14 3.77069 3.82176 4 4.04973 5 3.91123 4.11406 5 4.33428 4.54144 5 3.89817 3.95055 4 4.18752 5 4.01676 4.2197 5 4.09092 4.30386 5 4.09807 4.14543 4.3859 5 4.22624 4.4501 5 4.16662 4.23676 4.52348 5 4.31968 4.49606 5 4.37675 4.45076 4.76424 6 4.54474 4.75009 6 4.45294 4.50852 4.78106 6 4.58714 4.78414 6 4.66777 4.73878 5 5.07071 6 4.82433 5.04274 6 5.37455 5.56504 6 4.8328 4.88641 5 5.14562 6 4.96116 5.144 6 5.1496 5.39658 6 4.94469 4.99243 5 5.22559 6 5.06577 5.26263 6 5.07682 5.25886 6 4.94641 4.99799 5 5.23006 6 5.07773 5.28242 6 5.0807 5.26794 6 5.02226 5.07513 5.32406 6 5.14223 5.33863 6 5.24464 5.30356 5.59119 6 5.3683 5.66371 7 13.1104 13.3087 14 5.32812 5.38603 5.67463 6 5.46722 5.66505 7 5.36878 5.43639 5.7445 7 5.52008 5.72464 6 5.42773 5.48508 5.74586 7 5.55295 5.73185 7 5.50167 5.55894 5.84015 7 5.63108 5.85616 7 5.65735 5.71115 5.97492 7 5.77189 5.99272 7 5.65736 5.72183 6 6.02873 7 5.80854 6.04029 7 6.55525 6.75436 8 5.66986 5.73486 6 6.00474 7 5.82014 6.0289 7 6.8962 7.09223 8 5.76885 5.83111 6 6.12446 7 5.90946 6.118 7 6.20663 6.39911 7 5.98581 6.03525 6.29402 7 6.11357 6.32919 7 13.9511 14.1507 15 6.12483 6.19497 6.5136 7 6.27359 6.48135 7 6.28718 6.34528 6.61365 7 6.42705 6.60293 7 6.49642 6.5584 6.82158 8 6.63691 6.8374 8 6.60175 6.66082 6.93183 8 6.75614 6.93623 8 6.60177 6.66122 6.94479 8 6.73914 6.91822 8 6.87045 6.91574 7 7.14157 8 6.98122 7.16235 8 7.11701 7.31624 8 7.15412 7.234 7.60245 8 7.31083 7.4909 8 7.34566 7.40451 7.65962 8 7.48772 7.68985 9 7.34567 7.39957 7.63283 8 7.47277 7.71905 8 7.36414 7.41122 7.65098 8 7.47957 7.68526 9 7.36415 7.43257 7.7508 9 7.50056 7.67752 9 7.36417 7.42022 7.67911 9 7.50273 7.68658 9 7.80837 7.87417 8 8.16135 9 7.95227 8.14127 9 8.15805 8.35856 9 8.04567 8.10326 8.35877 9 8.17745 8.36697 9 8.31313 8.36929 8.60335 9 8.4399 8.63603 10 8.31314 8.37167 8.63176 9 8.46616 8.645 9 8.4493 8.50685 8.78311 10 8.58722 8.75052 10 8.61072 8.68498 9 9.01523 10 8.76309 8.94503 10 9.70953 9.92007 11 8.84258 8.90086 9 9.21446 10 8.98238 9.16068 10 9.13449 9.33174 10 8.96806 9.03913 9.34383 10 9.11672 9.327 10 8.96808 9.01616 9.28633 10 9.08386 9.28795 10 8.9681 9.02019 9.29839 10 9.08454 9.32228 10 16.657 16.8208 18 9.06285 9.12279 9.42722 10 9.21828 9.41125 10 9.56525 9.61349 9.88659 11 9.67826 9.89295 11 9.82167 9.87183 10 10.1108 11 9.94394 10.1356 11 10.1709 10.3586 11 9.82168 9.86981 10 10.1184 11 9.95289 10.2009 11 10.188 10.3777 11 9.8217 9.87931 10 10.142 11 9.95318 10.1394 11 10.1543 10.3277 11 10.2476 10.3005 10.549 11 10.3653 10.5514 11 10.7531 10.833 11 11.1663 12 10.923 11.1292 12 11.2047 11.4179 12 10.8074 10.8676 11 11.1381 12 10.9494 11.1303 12 11.1777 11.3634 12 11.3376 11.3986 11.7238 13 11.4922 11.7543 13 11.6943 11.76 12 12.1028 13 11.8399 12.0032 13 12.2884 12.4617 13 12.2177 12.2718 12.5311 13 12.3481 12.5206 13 12.2177 12.2686 12.5237 13 12.3201 12.4845 13 12.6264 12.6738 12.9264 14 12.7403 12.9634 14 13.2992 13.3718 13.6936 15 13.4618 13.6812 15 22.8903 23.0661 24 13.7602 13.8207 14 14.0798 15 13.8891 14.0875 15 14.2327 14.4297 15 13.7899 13.8361 14 14.0749 15 13.9075 14.127 15 14.231 14.4255 15 14.1912 14.2518 14.5774 15 14.3131 14.5503 15 14.908 14.9807 15 15.295 16 15.0524 15.2247 16 15.079 15.2338 16 15.0602 15.1109 15.3684 16 15.1731 15.3644 16 15.0602 15.1193 15.3525 16 15.2116 15.3752 16 15.0603 15.125 15.427 16 15.1924 15.4136 16 23.2915 23.4683 24 15.0603 15.1055 15.3255 16 15.1848 15.3927 16 22.3392 22.5374 23 15.4255 15.487 15.7927 17 15.5699 15.7541 17 15.692 15.751 16 16.0242 17 15.8218 16.0364 17 16.4816 16.6806 18 16.2338 16.2873 16.5772 17 16.3687 16.5983 18 17.3808 17.4282 17.6727 18 17.4982 17.7032 19 17.9442 17.9953 18 18.2477 19 18.0617 18.2487 19 18.0684 18.2815 19 17.9443 18.0105 18.318 19 18.1077 18.3 19 19.3538 19.4155 19.7031 20 19.4865 19.7003 20 19.3539 19.4038 19.6366 20 19.4819 19.7164 21 19.5382 19.6102 19.9344 21 19.7007 19.954 21 21.0511 21.0972 21.362 22 21.1563 21.3441 22 21.0512 21.1119 21.3956 22 21.1883 21.4111 22 21.5931 21.6556 21.9273 23 21.7461 21.9518 23 23.0397 23.0923 23.3576 24 23.1552 23.3136 24 23.0398 23.0914 23.3454 24 23.1504 23.3325 24 24.3818 24.4376 24.7601 26 24.5295 24.7129 26 25.6045 25.6598 25.9425 27 25.7429 25.9448 27 26.9488 27.0008 27.2715 28 27.0796 27.3165 28 31.7448 31.8083 32 32.1067 33 31.9016 32.149 33 32.2708 32.4799 33 36.7636 36.8177 37 37.0573 38 36.8912 37.1513 38 37.2821 37.4669 38 38.2332 38.2978 38.5873 39 38.3731 38.5626 39 39.4962 39.5461 39.8097 41 39.6168 39.8288 41 1.70601 1.85103 1.88634 1.88635 1.93753 1.97968 2.01026 2.11095 2.14468 2.27677 2.39614 2.4783 2.48958 2.48958 2.51774 2.52198 2.52199 2.63943 2.83487 2.84192 2.943 3.09802 3.17292 3.36801 3.36802 3.61519 3.63908 3.78571 3.82907 3.95816 4.04163 4.10853 4.1983 4.37318 4.37319 4.3732 4.58384 4.66969 4.99398 5.17954 5.50569 5.8418 5.84182 6.15518 6.43576 6.43578 6.72969 6.72972 6.86475 6.86478 7.08267 7.22902 8.13785 8.75719 8.75725 9.9918 10 10.5016 14.1887 20 2.1139 2.1726 2.46497 3 2.25504 2.42497 3 10.8575 11.0472 12 2.11391 2.17488 2.486 3 2.25819 2.431 3 2.16888 2.21389 2.46053 3 2.28689 2.52233 3 2.2142 2.27872 2.58061 3 2.36267 2.60791 3 2.24711 2.29621 2.54123 3.01026 2.36422 2.59863 3.01026 2.35564 2.41316 2.69591 3 2.47008 2.65932 3 2.39206 2.44056 2.71 4 2.52662 2.71012 4 10.8723 11.0798 12 2.53496 2.60168 2.8907 4 2.68896 2.89021 4 2.66452 2.72864 3 3.00228 4 2.82041 3.01933 4 4.11457 4.34397 5 2.75395 2.80191 3 3.04481 4 2.88301 3.08462 4 3.35142 3.54495 4 2.76623 2.8168 3 3.09116 4 2.88542 3.10354 4 3.22448 3.43489 4 2.76624 2.82971 3 3.11554 4 2.91073 3.10695 4 3.2191 3.4131 4 2.79694 2.84566 3 3.09496 4 2.90696 3.09745 4 3.1809 3.33867 4 2.80157 2.86204 3 3.14207 4 2.94147 3.20359 4 3.17597 3.37285 4 2.80157 2.86947 3 3.15461 4 2.95106 3.18292 4 3.16932 3.33935 4 2.92991 2.98625 3 3.27013 4 3.04969 3.22503 4 3.0685 3.26253 4 3.15225 3.20862 3.45681 4 3.27389 3.46967 4 3.26377 3.32556 3.61426 4 3.39967 3.58106 4 3.43551 3.50078 3.80652 5 3.5735 3.7594 5 3.51882 3.57709 3.87985 5 3.64401 3.85167 5 11.74 11.9593 13 3.73686 3.79387 4 4.07204 5 3.88708 4.11357 5 4.3308 4.51945 5 3.73687 3.79422 4 4.0978 5 3.88933 4.10751 5 4.29762 4.48893 5 4.04254 4.10427 4.38904 5 4.16248 4.37513 5 11.4039 11.5837 12 4.20931 4.26342 4.53793 5 4.3604 4.57387 5 13.0508 13.2362 14 4.25884 4.31728 4.59017 5 4.38514 4.58368 5 12.0192 12.2504 13 4.40683 4.46609 4.7417 6 4.54554 4.73367 5 4.50301 4.55635 4.84248 6 4.643 4.85253 6 13.3127 13.4821 14 4.58037 4.6595 5 5.0048 6 4.76568 4.986 6 6.19816 6.42693 7 4.68458 4.74995 5 5.01014 6 4.83093 5.01088 6 5.68416 5.89677 7 4.88897 4.94485 5 5.20592 6 5.00732 5.24872 6 5.0874 5.29456 6 4.88898 4.93787 5 5.19996 6 5.02566 5.1975 6 5.12383 5.32024 6 4.889 4.9493 5 5.23967 6 5.03658 5.22562 6 5.11302 5.32209 6 5.13778 5.1877 5.44556 6 5.26464 5.46664 6 5.24006 5.31123 5.63301 6 5.39703 5.58649 6 5.63136 5.68855 5.96956 7 5.74893 5.95619 7 5.85913 5.90479 6 6.14262 7 5.9774 6.22071 7 6.13469 6.35755 7 6.2672 6.33672 6.62296 7 6.4208 6.6095 7 6.69955 6.76038 7 7.05535 8 6.85068 7.01266 8 7.3999 7.58187 8 6.69958 6.75561 7 7.0042 8 6.82864 7.05365 8 7.803 8.0262 9 7.1153 7.17287 7.43062 8 7.25382 7.45662 8 7.4997 7.56057 7.83019 9 7.6474 7.83913 9 7.49974 7.55542 7.83901 9 7.62422 7.84729 9 7.91685 7.97442 8 8.24239 9 8.0378 8.21306 9 8.0736 8.25153 9 7.91689 7.97252 8 8.23204 9 8.0454 8.21394 9 8.08536 8.31238 9 8.1142 8.17408 8.47532 9 8.24295 8.42071 9 8.11424 8.18099 8.44855 9 8.27587 8.45924 9 8.44117 8.48624 8.73001 10 8.55691 8.73482 10 8.66735 8.72819 9 9.01281 10 8.81187 8.99652 10 9.69269 9.91428 11 11.5506 11.6171 11.9023 13 11.7167 11.9183 13 11.5507 11.6136 11.8578 13 11.7015 11.9177 13 16.155 16.2059 16.4506 17 16.2818 16.534 17 23.7636 23.9881 25 16.2113 16.2723 16.59 17 16.3477 16.5612 17 1.95251 2.11982 2.29144 2.29802 2.29803 2.38883 2.55994 2.58012 2.58157 2.76568 2.81164 3.00231 3.03196 3.05654 3.18411 3.26811 3.26812 3.36644 3.45457 3.45923 3.57566 3.57567 3.6257 3.66848 3.88337 3.98746 3.98747 4.19033 4.23812 4.34941 4.49962 4.62779 4.84895 5.10914 5.13684 5.28926 5.39976 5.68286 5.72101 5.72103 5.79469 5.98289 6.0524 6.36533 6.46801 6.46802 6.59379 6.7612 6.93755 7.01938 7.0194 7.36505 7.55499 7.63578 7.6358 7.91379 8.19476 8.35512 8.52225 8.7065 9.17804 9.23141 9.39714 9.74849 10.1879 10.438 10.4381 10.5443 10.8744 11.2119 11.5799 11.784 12.1088 12.1088 12.3386 12.7478 13.0901 13.2433 14.2094 14.2596 14.2788 15.4219 15.6175 16.502 16.502 16.996 18.6269 18.627 19.5061 19.6299 19.7196 19.7197 22.659 28 42 2.80473 2.86556 3 3.15192 4 2.93261 3.13826 4 3.14818 3.32288 4 2.80474 2.86801 3 3.16438 4 2.94062 3.13385 4 3.15195 3.35297 4 2.90277 2.96841 3 3.25457 4 3.0484 3.23731 4 3.09435 3.30992 4 3.08779 3.14528 3.4258 4 3.23538 3.4456 4 3.10963 3.15792 3.40143 4 3.22384 3.41818 4 3.1112 3.16737 3.47688 4 3.23158 3.43606 4 3.36066 3.40963 3.65467 4 3.48025 3.65271 4 3.60025 3.66299 3.9269 5 3.74634 3.95651 5 3.62702 3.68851 3.97465 5 3.78514 3.95474 5 3.76612 3.81536 4 4.07842 5 3.90159 4.0964 5 4.28101 4.47749 5 3.85783 3.90014 4 4.1149 5 3.9676 4.19544 5 4.13921 4.31388 5 3.85784 3.91301 4 4.1691 5 3.989 4.19728 5 4.12795 4.3591 5 3.96533 4.01425 4.24964 5 4.09139 4.29706 5 4.06182 4.11753 4.3624 5 4.19677 4.37424 5 4.06691 4.12365 4.41173 5 4.19883 4.41244 5 4.19457 4.25455 4.5456 5 4.33023 4.49119 5 4.19458 4.24456 4.49485 5 4.31269 4.54973 6 4.2495 4.30435 4.5654 5 4.38189 4.57521 5 4.29649 4.35315 4.60281 5 4.42497 4.62086 5 4.533 4.61583 4.94994 6 4.72535 4.94617 6 4.64784 4.72231 5 5.03773 6 4.80319 5.01612 6 5.48314 5.67916 7 4.64785 4.6967 4.91569 6 4.77862 4.98323 6 12.0128 12.2597 13 4.87221 4.9341 5 5.2229 6 5.03158 5.22433 6 5.13556 5.34781 6 4.92517 4.98434 5 5.25583 6 5.07759 5.26354 6 5.10106 5.28216 6 5.04865 5.09748 5.35817 6 5.16029 5.3745 6 5.21569 5.26976 5.5487 6 5.35348 5.54445 7 5.35855 5.41727 5.70129 6 5.48897 5.71553 7 5.60583 5.65392 5.91869 7 5.72726 5.91028 7 5.9292 5.98455 6 6.23498 7 6.06757 6.22838 7 6.09058 6.27621 7 6.10111 6.15668 6.4019 7 6.23717 6.41086 7 6.22607 6.28821 6.56605 7 6.36993 6.55774 7 14.6786 14.875 16 6.59091 6.65636 6.99876 8 6.74846 6.94745 8 6.59093 6.64227 6.90726 8 6.71815 6.88764 8 6.67493 6.72947 6.99694 8 6.80877 7.01985 8 6.89014 6.94614 7 7.21441 8 7.01528 7.19425 8 7.09445 7.26016 8 6.96985 7.0608 7.48633 8 7.14687 7.35066 8 7.44906 7.50068 7.75845 9 7.58343 7.78671 9 15.5785 15.7718 17 7.44907 7.49818 7.76127 9 7.58341 7.76762 9 7.595 7.63995 7.85751 9 7.70845 7.9232 9 7.78996 7.84119 8 8.10275 9 7.92118 8.13757 9 8.21705 8.38673 9 7.9962 8.05411 8.32374 9 8.12798 8.30104 9 8.09223 8.13569 8.40907 9 8.21208 8.38074 9 8.09224 8.16073 8.47752 9 8.23875 8.41817 9 8.50015 8.56909 8.89626 10 8.63943 8.85372 10 17.289 17.5 18 8.72598 8.78614 9 9.02479 10 8.87886 9.06154 10 9.49909 9.70595 11 8.8224 8.88011 9 9.15305 10 8.93759 9.1739 10 9.12261 9.32655 10 8.82242 8.88928 9 9.19594 10 8.98661 9.18504 10 9.16804 9.35888 10 9.15596 9.20823 9.50716 10 9.28069 9.45323 10 9.49601 9.5592 9.84552 11 9.63503 9.90605 11 17.8451 18.0279 19 9.69145 9.74168 9.98639 11 9.79692 9.98604 11 9.89627 9.9526 10 10.2229 11 10.0411 10.2021 11 10.1139 10.299 11 10.1234 10.1763 10.4621 11 10.2491 10.4171 11 18.3303 18.5027 19 10.779 10.8403 11 11.1198 12 10.9168 11.1005 12 11.1989 11.4334 12 10.9887 11.0486 11.302 12 11.1204 11.347 12 11.4382 11.4991 11.771 13 11.5737 11.7904 13 12.0099 12.0704 12.3471 13 12.157 12.3461 13 12.3407 12.3968 12.6565 14 12.4849 12.6855 14 20.7185 20.8859 22 12.3407 12.3975 12.6828 13 12.4743 12.6492 14 12.4825 12.5449 12.7895 14 12.6317 12.8226 14 12.9278 12.9731 13 13.2035 14 13.0423 13.2162 14 13.082 13.2714 14 13.3914 13.452 13.78 15 13.5382 13.7283 15 13.9074 13.9621 14 14.237 15 14.0273 14.2021 15 14.0811 14.2735 15 14.1988 14.2666 14.542 15 14.3435 14.5916 15 14.6705 14.7351 15 15.0463 16 14.8177 14.9656 16 15.4365 15.648 16 14.6705 14.7345 15 15.0129 16 14.8054 14.9711 16 15.6217 15.823 17 15.0109 15.0634 15.3428 16 15.131 15.3299 16 15.6315 15.6939 15.9603 17 15.7796 15.9541 17 16.1668 16.217 16.4974 17 16.3046 16.5098 17 16.4116 16.47 16.7272 17 16.5346 16.7212 18 18.132 18.1791 18.4195 19 18.2536 18.4173 19 18.1664 18.2338 18.5269 19 18.2989 18.4849 19 20.797 20.8472 21 21.1138 22 20.9334 21.1118 22 21.2156 21.4496 22 22.8979 22.9612 23 23.2346 24 23.0404 23.2365 24 23.0979 23.2998 24 22.898 22.9528 23 23.2295 24 23.0226 23.2311 24 23.091 23.2836 24 24.2739 24.3339 24.6064 25 24.403 24.5859 26 31.2142 31.2793 31.5982 32 31.3766 31.5866 32 31.2147 31.269 31.5668 32 31.3574 31.5773 32 42.5413 42.5999 42.8572 44 42.6802 42.8523 44 48.3791 48.4318 48.6877 49 48.5046 48.6707 49 94.0735 94.1232 94.3755 95 94.2003 94.399 95 2.20615 2.41921 2.53932 2.56881 2.76738 2.92209 3.04849 3.28604 3.32736 3.57362 3.59318 3.59319 3.68538 3.71168 3.71169 3.79459 4.0562 4.0993 4.09931 4.37145 4.38574 4.42945 4.47279 4.75842 4.76524 4.89013 4.98542 4.98544 4.98545 5.14818 5.34342 5.37142 5.5165 5.51652 5.51653 5.8436 5.88185 5.96138 6.0123 6.01231 6.02835 6.20683 6.56462 6.7018 6.93497 7.26269 7.26271 7.38156 7.38157 7.5974 7.77709 7.87029 7.89077 7.98912 7.98914 8.02808 8.14776 8.4206 8.85098 9.07897 9.22887 9.4328 9.71579 10.2825 10.3043 10.323 10.3231 10.5083 10.6336 10.7806 11.0506 11.0507 11.1218 11.721 12.0757 12.4846 12.5345 13.1051 13.5151 14.0529 15.0649 15.721 16.3033 16.6759 16.676 16.9151 16.9151 17.8975 17.8975 19.1418 19.3073 20 20.7009 23.3003 27.2115 35.3513 49 3.35919 3.44243 3.78497 5 3.5325 3.74315 5 3.39193 3.44372 3.70949 4 3.51052 3.75008 5 3.61274 3.67127 3.96227 5 3.74795 3.95798 5 3.78523 3.84921 4 4.14106 5 3.93411 4.14202 5 4.19557 4.35274 5 3.92644 3.97808 4 4.27633 5 4.04935 4.24835 5 4.07991 4.29526 5 4.23894 4.30889 4.60264 5 4.4025 4.58318 5 4.53809 4.59558 4.87587 6 4.69165 4.84246 6 4.5381 4.60195 4.86876 6 4.68495 4.9076 6 4.64216 4.70294 5 5.00759 6 4.78016 4.97058 6 5.82221 6.01892 7 4.67187 4.74275 5 5.10158 6 4.81329 5.01219 6 5.28102 5.51767 6 4.67188 4.74258 5 5.0455 6 4.82131 5.00685 6 5.41785 5.5916 6 4.76562 4.82455 5 5.13906 6 4.90885 5.11561 6 5.21432 5.50927 6 5.11132 5.17114 5.47082 6 5.24024 5.42237 6 13.3838 13.618 14 5.11133 5.15849 5.44913 6 5.23298 5.41006 6 13.4761 13.6581 14 5.43796 5.4907 5.76361 7 5.56566 5.78229 7 13.5131 13.7318 15 5.48795 5.54005 5.80597 7 5.61721 5.80775 7 13.5336 13.7129 14 5.53757 5.62259 5.97428 7 5.73582 5.93135 7 16.6427 16.8659 18 5.87338 5.91872 6 6.17075 7 5.98367 6.16165 7 6.10844 6.2833