<?xml version="1.0"?><VTKFile type="PolyData" version="0.1" byte_order="LittleEndian">
    <PolyData>
        <Piece NumberOfLines="2732" NumberOfPoints="12243">
            <PointData Scalars="Pointdata">
                <DataArray type="Float32" Name="time" NumberOfComponents="1" format="ascii">0 0.58957381650209117 0.82615610628341385 1.0631709050618761 1.3006197971208737 1.5385043754645951 1.7768262418822023 2.0155870070125168 2.254788290409389 2.4944317206075257 2.7345189351890729 2.9750515808507467 3.2160313134715803 3.4574597981813842 3.6993387094296897 3.941669731055494 4.1844545563575712 4.4276948881654565 4.6713924389111625 4.9155489307014246 5.1601660953907809 5.4052456746552453 5.6507894200667756 5.8967990931682959 6.1432764655495768 6.3902233189237592 6.6376414452046886 6.885532646584843 7.1338987356141521 7.3827415352795116 7.6320628790850442 7.8818646111332198 8.1321485862066094 8.382916669850573 8.6341707384566746 8.8859126793469176 9.138144390858864 9.3908677824314246 9.6440847746916685 9.8977972995423702 10.152007300250439 10.406716731536289 10.661927559663917 10.917641762532041 11.173861329766114 11.43058826281111 11.687824575025383 11.945572291775452 12.203833450531588 12.462610100964501 12.721904305042989 12.98171813713242 13.242053684094378 13.502913045387192 13.7642983331676 14.026211672393252 14.288655200926437 14.55163106963875 14.815141442516918 15.079188496769559 15.343774422935155 15.608901424991142 15.874571720463969 16.14078754054043 16.407551130180138 16.674864748229048 16.942730667534228 17.211151175059847 17.480128572004336 17.749665173918697 18.019763310826157 18.290425327343009 18.561653582800762 18.833450451369469 19.105818322182468 19.378759599462427 19.652276702648582 19.926372066525474 20.201048141353048 20.47630739299797 20.752152303066506 21.028585369038797 21.305609104404468 21.583226038799786 21.861438718146243 22.140249704790701 22.419661577646899 22.699676932338647 22.980298381344454 23.261528554143862 23.543370097365159 23.825825674934897 24.108897968228991 24.392589676225374 24.676903515658442 24.9618422211752 25.247408545492981 25.533605259559078 25.820435152712101 26.107901032844993 26.396005726570035 26.684752079385593 26.974142955844723 27.264181239725744 27.554869834204585 27.846211662029159 28.138209665695779 28.430866807627343 28.724186070353728 29.018170456694214 29.312822989941839 29.608146714049983 29.904144693821117 30.00000000000006 2.3745546350222551 6.4292057161038976 13.36067752170335 30 2.6144197521462349 6.6690708332278774 13.60054263882733 29.999999999999986 2.8547294758584556 4.3452587843521364 5.304872043827757 6.3204158711313365 7.3988157645037163 8.5483689174464743 9.7791322317468037 11.103458039076298 12.536750608349243 14.098562516940932 15.814232357400476 17.717420017361761 19.854203345256696 22.290054340938031 25.122527112184962 28.506389078155934 30.000000000000014 5.9752843668264894 10.029935447908132 16.961407253507584 30.000000000000007 7.0318849184843524 11.086535999565996 18.018007805165446 30.000000000000004 8.1566991440248806 12.211350225106523 19.142822030705975 29.999999999999996 9.3591463327974633 13.413797413879106 20.34526921947856 29.999999999999986 10.650742418905191 14.705393499986831 21.636865305586284 29.999999999999996 12.045772466929677 16.100423548011321 23.031895353610771 30 13.562256465891798 17.61690754697344 24.548379352572894 30.000000000000007 15.223376742481458 19.2780278235631 26.209499629162551 30 17.059660015375002 21.114311096456646 28.045782902056096 29.999999999999993 19.112450065386255 23.1671011464679 29.999999999999996 21.439711479699362 25.494362560781006 30 24.126337613831581 28.180988694913225 30 27.303941889383356 30 3.0954854574382753 7.1501365385199183 14.08160834411937 29.999999999999996 3.3366893573815184 7.3913404384631605 14.322812244062613 30.000000000000018 3.5783428454691801 7.6329939265508226 14.564465732150275 30.000000000000007 3.8204476008367658 7.8750986819184083 14.80657048751786 30 4.0630053120443579 5.5428558051805767 6.4839391696017987 7.4694993393417501 8.5039498259629411 9.5923955349491195 10.740785173337976 11.956108114209469 13.246652248901011 14.622347005701354 16.095227693306665 17.680076610274753 19.395328373503027 21.264381969030786 23.317560630564337 25.595145862977024 28.152280009474243 30.000000000000007 7.1357779341159793 11.190429015197623 18.121900820797073 29.999999999999989 8.1534013582212737 12.208052439302916 19.139524244902368 29.999999999999993 9.2232329268758999 13.277884007957542 20.209355813556996 30 10.350920684798798 14.405571765880438 21.337043571479889 29.999999999999993 11.543081887746295 15.597732968827936 22.529204774427388 29.999999999999996 12.807538285631932 16.862189366713572 23.793661172313026 29.999999999999996 14.153627440786991 18.208278521868635 25.139750327468086 30.000000000000004 15.592621617514839 19.647272698596481 26.578744504195932 29.999999999999993 17.138302179578176 21.19295326065982 28.124425066259274 29.999999999999993 18.807764368197645 22.86241544927929 29.793887254878744 30 20.622573088267067 24.677224169348712 29.999999999999993 22.610471124185846 26.665122205267487 29.999999999999996 24.807990450763359 28.862641531845 29.999999999999996 27.264608051596504 29.999999999999996 4.3060176771471887 5.8037490740722939 6.7760768467850969 7.8125591977990574 8.9222638254468976 10.1163280779571 11.408641050252378 12.816832115376029 14.363747545298567 16.079736419034155 18.006344337627951 20.20260343209473 22.756472324202615 25.807495408274804 29.597184872540179 30.000000000000014 7.4594143201238508 11.514065401205494 18.445537206804946 30.000000000000004 8.5435880149188019 12.598239096000446 19.529710901599898 30.000000000000014 9.7081418630487182 13.762792944130362 20.694264749729815 29.999999999999993 10.965955840775718 15.020606921857359 21.952078727456811 29.999999999999993 12.333277479184186 16.387928560265831 23.319400365865285 29.999999999999993 13.831008876109291 17.885659957190931 24.817131762790385 29.999999999999996 15.486674122160847 19.54132520324249 26.472797008841944 30 17.337550396761159 21.392201477842804 28.323673283442254 30 19.435900852289368 23.490551933371009 30 21.858268678146288 25.912919759227925 30 24.723321713479852 28.777972794561492 30 28.229863234131724 30 4.5494864037670242 8.6041374848486676 15.535609290448118 29.999999999999982 4.7934132091641315 8.8480642902457731 15.779536095845227 29.999999999999982 5.0377998203100169 9.0924509013916595 16.023922706991112 29.999999999999993 5.2826479739606889 9.3372990550423314 16.268770860641784 29.999999999999989 5.5279594167307833 9.5826104978124249 16.514082303411879 29.999999999999993 5.7737359051682846 9.828386986249928 16.759858791849378 30 6.0199792058300545 10.074630286911697 17.006102092511149 29.999999999999996 6.2666910953579285 10.321342176439572 17.252813982039022 30.000000000000007 6.5138733605556851 10.568524441637328 17.49999624723678 29.999999999999996 6.7615277984666804 10.816178879548323 17.747650685147775 29.999999999999993 7.0096562164522176 11.06430729753386 17.995779103133312 30.000000000000004 7.2582604322707533 11.312911513352397 18.244383318951847 29.999999999999993 7.5073422741577049 11.561993355239348 18.493465160838799 29.999999999999993 7.7569035809061795 11.811554661987822 18.743026467587274 30 8.0069462019484128 12.061597283030055 18.993069088629507 30 8.25747199743798 12.312123078519623 19.243594884119076 30 8.5084828383328972 12.56313391941454 19.49460572501399 30 8.7599806064793597 10.247443727923061 11.201697500184915 12.208504854388845 13.273993460084405 14.405429413786575 15.611517967693725 16.902810625320299 18.292267210059446 19.796049577821222 21.434671908146928 23.234718953874975 25.231506006949111 27.473377039494618 30.000000000000011 11.866705850738056 15.921356931819698 22.852828737419152 30 12.911888275239972 16.966539356321615 23.898011161921069 30 14.020452788454781 18.07510386953642 25.006575675135874 29.999999999999993 15.200585746398943 19.255236827480587 26.186708633080038 30 16.46216968216034 20.516820763241981 27.448292568841435 30 17.817286887256969 21.871937968338614 28.803409773938064 30 19.280924970430199 23.335576051511843 29.999999999999996 20.871990149669145 24.926641230750789 30 22.614804866091085 26.669455947172729 29.999999999999996 24.541397152405622 28.596048233487267 30 26.695144090122348 30 29.136860983827905 30 9.0119671946964548 13.066618275778097 19.998090081377548 30 9.2644445068616115 10.74429499999783 11.685378364419051 12.670938534159003 13.705389020780194 14.793834729766372 15.94222436815523 17.157547309026722 18.448091443718262 19.823786200518608 21.296666888123919 22.881515805092008 24.596767568320281 26.465821163848041 28.518999825381592 30.000000000000007 12.337217128933233 16.391868210014877 23.323340015614328 30 13.354840553038526 17.409491634120172 24.340963439719623 30.000000000000007 14.424672121693153 18.479323202774793 25.410795008374247 30 15.552359879616048 19.607010960697693 26.538482766297143 29.999999999999993 16.744521082563548 20.799172163645189 27.730643969244642 30 18.008977480449186 22.063628561530827 28.995100367130281 30 19.355066635604242 23.40971771668589 30.000000000000004 20.794060812332091 24.848711893413736 29.999999999999996 22.33974137439543 26.394392455477075 30 24.0092035630149 28.063854644096544 30 25.824012283084322 29.878663364165966 30 27.811910319003101 30 9.5174144579969617 11.004877579440663 11.959131351702517 12.965938705906447 14.031427311602005 15.162863265304177 16.368951819211325 17.660244476837903 19.049701061577046 20.553483429338826 22.192105759664528 23.992152805392575 25.988939858466715 28.230810891012219 30 12.624139702255658 16.678790783337298 23.610262588936752 30 13.669322126757574 17.723973207839215 24.655445013438669 29.999999999999996 14.777886639972383 18.832537721054024 25.764009526653478 30.000000000000004 15.958019597916543 20.012670678998184 26.944142484597638 29.999999999999993 17.21960353367794 21.274254614759585 28.205726420359035 29.999999999999993 18.574720738774566 22.62937181985621 29.560843625455664 29.999999999999996 20.038358821947803 24.093009903029447 29.999999999999996 21.629424001186749 25.684075082268393 30 23.372238717608688 27.426889798690333 29.999999999999996 25.298831003923226 29.35348208500487 29.999999999999996 27.452577941639952 30 29.894294835345509 29.999999999999996 9.7708789743564122 13.825530055438055 20.757001861037509 29.999999999999993 10.024839993513702 14.079491074595344 21.010962880194796 30 10.279299464451253 14.333950545532895 21.265422351132347 29.999999999999986 10.534259347649963 14.588910428731605 21.520382234331059 30 10.789721615179756 14.844372696261399 21.775844501860853 30 11.045688250791148 15.100339331872791 22.031811137472243 30.000000000000004 11.302161250007682 15.356812331089325 22.288284136688777 30 11.559142620219237 15.61379370130088 22.545265506900332 29.999999999999996 11.816634380776369 15.871285461858012 22.802757267457466 30 12.074638563085436 16.129289644167081 23.060761449766531 30 12.333157210704799 16.387808291786442 23.319280097385892 30 12.592192379441929 14.067974659946296 15.002098110479297 15.976555704008293 16.994988386053176 18.061553501251204 19.18102731553989 20.358934315675615 21.601712143521091 22.916924641176543 24.313540896527662 25.802306455256804 27.396245829514605 29.111356301301988 30.000000000000007 15.64703994564513 19.70169102672677 26.633162832326224 29.999999999999996 16.65037972938681 20.70503081046845 27.636502616067901 30.000000000000004 17.700402939431534 21.755054020513178 28.686525826112629 30.000000000000004 18.80166664497014 22.856317726051785 29.787789531651235 30.000000000000004 19.959429575431997 24.014080656513642 30 21.179803998389652 25.234455079471296 30.000000000000007 22.469951053634205 26.524602134715849 30.000000000000004 23.838335374633736 27.892986455715381 30.000000000000007 25.295061994596054 29.349713075677698 30.000000000000004 26.852329665301529 30.000000000000004 28.525052465342679 30 12.851746137451549 16.906397218533193 23.837869024132644 30 13.111820565334616 17.166471646416259 24.097943452015713 30 13.372417756238464 17.427068837320107 24.358540642919557 30 13.633539815957835 17.688190897039476 24.61966270263893 30.000000000000004 13.89518886303706 17.9498399441187 24.881311749718154 30.000000000000004 14.157367028873077 18.21201810995472 25.14348991555417 29.999999999999993 14.420076457819663 18.474727538901305 25.406199344500756 30 14.68331930729272 18.737970388374364 25.669442193973815 29.999999999999993 14.947097747876473 19.001748828958114 25.933220634557568 30.000000000000004 15.211413963430909 19.266065044512551 26.197536850112002 30 15.476270151200312 19.530921232281955 26.462393037881405 29.999999999999993 15.74166852192276 19.796319603004402 26.727791408603856 29.999999999999993 16.007611299940891 20.062262381022535 26.993734186621985 30 16.274100723313815 20.328751804395459 27.26022360999491 30 16.541139043930013 20.595790125011654 27.527261930611107 30 16.808728527621586 20.863379608703227 27.794851414302681 30 17.07687145427958 21.131522535361221 28.062994340960675 30 17.345570117970592 21.400221199052233 28.331693004651687 29.999999999999996 17.61482682705444 21.669477908136081 28.600949713735535 30 17.884643904303228 19.366803347377665 20.311861044388579 21.303799867176021 22.347514930587423 23.448710474247971 24.614088636727487 25.851596711089236 27.170756066925183 28.583107411204253 30.000000000000004 20.967657500848397 25.022308581930041 30 21.993523388599407 26.048174469681051 30 23.074867814004921 27.129518895086562 30 24.218036090803892 28.272687171885536 30 25.430528527132591 29.485179608214231 30 26.721298949884012 30.000000000000004 28.101156379623045 30 29.583315822697479 30.000000000000004 18.155023687021519 22.209674768103163 29.141146573702613 30 18.425968527167889 22.480619608249533 29.412091413848984 30 18.697480791477592 22.752131872559232 29.683603678158686 30.000000000000004 18.969562861586656 23.024213942668297 29.955685748267751 30 19.242217134157276 23.296868215238916 30 19.515446021004376 23.570097102086017 29.999999999999996 19.789251949223676 23.84390303030532 30 20.063637361321106 24.118288442402751 29.999999999999996 20.338604715343422 24.393255796425066 30 20.614156485010401 24.668807566092042 30 20.89029515984841 22.370145652984629 23.31122901740585 24.296789187145801 25.331239673766994 26.419685382753173 27.568075021142029 28.78339796201352 30 23.963067781920032 28.017718863001676 30 24.980691206025327 29.035342287106971 30 26.050522774679951 30 27.178210532602851 30 28.37037173555035 30 29.634828133435985 30 21.167023245325254 25.221674326406898 30 21.444343262986656 25.498994344068301 30 21.722257750594078 25.776908831675719 30 22.000769262264079 23.480619755400298 24.421703119821519 25.40726328956147 26.44171377618266 27.530159485168838 28.678549123557698 29.893872064429189 30 25.0735418843357 29.128192965417341 30 26.091165308440996 30 27.16099687709562 30 28.288684635018516 30 29.480845837966015 30 22.279880368609184 26.334531449690829 30 22.559593656880171 26.614244737961812 30 22.839911731110007 26.894562812191651 30 23.120837212259367 27.175488293341012 30 23.402372738363564 27.457023819445205 30 23.68452096468123 27.739172045762871 30 23.96728456384464 28.02193564492628 30 24.250666226011493 28.305317307093134 30 24.534668659018553 26.014519152154772 26.955602516575993 27.941162686315945 28.975613172937138 30 27.607441281090175 30 28.62506470519547 30 29.694896273850095 30 24.819294588536923 28.873945669618564 30 25.10454675822891 29.159197839310551 30 25.390427929906796 29.445079010988437 30 25.67694088369322 29.731591964774864 30 25.964088418183483 30 26.251873350609468 30 26.540298517005525 30 26.829366772376172 30 27.11908099086568 28.603767191200991 29.553194350154687 30 27.409444065929474 30 27.700458910507567 30 27.992128457199925 30 28.284455658443719 30 28.577443486692662 30 28.871094934598435 30 29.165413015193984 30 29.460400762079068 30 29.756061229607919 30 0 0.5896270197297292 0.82626064358418438 1.063344141518991 1.3008792273417209 1.5388676246718336 1.7773110670157044 2.0162112978424438 2.2555700706603021 2.4953891490939486 2.7356703069624295 2.9764153283578847 3.2176260077250345 3.4593041499414148 3.7014515703984685 3.9440700950832777 4.1871615606612389 4.430727814559476 4.6747707150510758 4.9192921313401587 5.1642939436477793 5.4097780432986582 5.6557463328088469 5.9022007259741054 6.1491431479593084 6.3965755353886591 6.6444998364368191 6.8929180109209414 7.1418320303936165 7.3912438782368053 7.6411555497565837 7.8915690522789737 8.1424864052466681 8.3939096403167497 8.645840801459391 8.8982819450575388 9.1512351400076888 9.4047024678215347 9.6586860227287925 9.913187911781014 10.168210254956463 10.423755185266078 10.679824848860491 10.936421405138255 11.193547026854986 11.451203900233837 11.709394225077004 11.968120214878402 12.227384096937586 12.487188112474708 12.747534516746827 13.008425579165355 13.269863583414732 13.531850827572441 13.794389624230112 14.057482300616067 14.321131198719083 14.585338675413468 14.850107102585532 15.115438867261267 15.381336371735523 15.647802033702487 15.914838286387635 16.182447578680975 16.45063237527183 16.719395156785037 16.988738419918676 17.258664677583063 17.529176459041654 17.800276310053068 18.07196679301488 18.344250487109019 18.61712998844855 18.89060791022629 19.164686882864906 19.439369554168749 19.714658589477352 19.990556671820549 20.267066502075416 20.544190799124909 20.821932300018261 21.100293760133226 21.379277953340019 21.658887672167207 21.939125727969447 22.219994951097032 22.501498191067505 22.783638316738998 23.066418216485744 23.349840798375471 23.633908990348818 23.918625740400905 24.203994016764785 24.490016808097185 24.776697123666292 25.06403799354171 25.352042468786689 25.640713621652392 25.930054545774624 26.220068356372739 26.510758190450858 26.802127207001533 27.094178587211648 27.386915534670859 27.680341275582443 27.974459058976603 28.269272156926412 28.564783864766117 28.86099750131222 29.157916409087093 29.455543954545277 29.753883528302577 30.000000000000057 2.3754219610513179 6.4300730421329604 13.361544847732413 29.999999999999979 2.6154718568347723 4.0894529093109675 5.0205120376710131 5.9901085306293158 7.001570842899917 8.0586781837566335 9.165745771683703 10.327731249806131 11.550368895516634 12.840340818090421 14.205498094137848 15.655150409818756 17.200451369512294 18.854920087096346 20.635161336293379 22.561882494988147 24.661367355717964 26.967677633057015 29.526061044808259 30.000000000000007 5.6624308615068344 9.7170819425884769 16.648553748187929 29.999999999999993 6.6595418278900542 10.714192908971697 17.645664714571147 29.999999999999993 7.7009831224067327 11.755634203488375 18.687106009087827 30 8.7908806315670809 12.845531712648723 19.777003518248176 30 9.9339644778223448 13.988615558903989 20.920087364503441 30 11.135693089187814 15.190344170269457 22.121815975868909 29.999999999999993 12.402410844662846 16.45706192574449 23.388533731343941 30 13.741550826055928 17.796201907137572 24.727673712737023 30 15.161899108612399 19.21655018969404 26.148021995293494 30 16.673944460978355 20.728595542059999 27.660067347659449 30 18.290348878672638 22.344999959754283 29.276471765353737 30 20.026592797702698 24.081243878784342 30 21.901879091768411 25.956530172850051 30 23.940431352668302 27.995082433749943 29.999999999999996 26.173412708083912 30 28.641859074924422 30 2.8559847228100583 6.9106358038917008 13.842107609491153 29.999999999999993 3.0969623482356092 7.1516134293172513 14.083085234916703 29.999999999999996 3.3384065327624795 7.393057613844122 14.324529419443575 29.999999999999989 3.5803190865149737 7.6349701675966166 14.566441973196069 29.999999999999993 3.8227018301720701 7.8773529112537126 14.808824716853165 30.000000000000014 4.0655565950496229 8.1202076761312654 15.051679481730718 30 4.3088852231834434 8.3635363042650859 15.295008109864538 30 4.5526895674130401 8.6073406484946826 15.538812454094135 29.999999999999993 4.7969714914663308 6.2844346129100312 7.2386883851718871 8.2454957393758157 9.3109843450713754 10.442420298773545 11.648508852680695 12.939801510307273 14.329258095046416 15.833040462808192 17.471662793133898 19.271709838861945 21.268496891936081 23.510367924481589 26.066014870770196 29.037789581586651 30.000000000000007 7.9036967357250267 11.958347816806668 18.889819622406122 29.999999999999996 8.9488791602269444 13.003530241308587 19.935002046908039 30 10.057443673441751 14.112094754523394 21.043566560122848 30.000000000000007 11.237576631385913 15.292227712467556 22.223699518067008 30.000000000000004 12.49916056714731 16.553811648228951 23.485283453828405 30 13.854277772243938 17.908928853325584 24.840400658925034 30 15.317915855417173 19.372566936498814 26.304038742098268 30.000000000000004 16.908981034656115 20.963632115737759 27.895103921337213 30 18.651795751078055 22.706446832159699 29.637918637759153 29.999999999999993 20.578388037392592 24.633039118474237 30 22.732134975109318 26.786786056190962 30 25.173851868814875 29.228502949896516 30 27.992607157084741 30 5.0417328700451138 9.0963839511267572 16.027855756726208 30.000000000000004 5.2869755889113863 9.3416266699930297 16.27309847559248 29.999999999999993 5.5327015449745236 9.5873526260561661 16.518824431655617 30.000000000000014 5.778912646379311 9.8335637274609535 16.765035533060406 30.000000000000004 6.0256108125948362 10.080261893676479 17.011733699275929 30 6.2727979745043294 10.327449055585973 17.258920861185423 30.000000000000014 6.5204760744957637 10.575127155577405 17.506598961176859 30.000000000000004 6.768647066553485 10.823298147635128 17.754769953234579 30.000000000000004 7.0173129163506935 11.071963997432336 18.003435803031788 30.000000000000007 7.2664756013428651 11.321126682424508 18.25259848802396 30.000000000000007 7.5161371108620978 11.570788191943741 18.502259997543192 30.000000000000004 7.7662994462124164 11.820950527294059 18.752422332893509 30.000000000000014 8.0169646207660108 12.071615701847653 19.003087507447106 30.000000000000014 8.2681346600605181 12.322785741142161 19.254257546741613 29.999999999999993 8.5198116018971568 12.574462682978799 19.505934488578252 29.999999999999996 8.7719974964399672 12.82664857752161 19.75812038312106 30 9.0246944063160104 13.079345487397653 20.010817292997103 29.999999999999993 9.2779044067165888 13.332555487798231 20.264027293397682 30 9.531629585499509 13.586280666581152 20.517752472180604 29.999999999999993 9.7858720432923398 13.840523124373982 20.771994929973435 30 10.040633893596846 14.095284974678489 21.026756780277942 30.000000000000014 10.295917262894299 14.350568343975942 21.282040149575394 30.000000000000007 10.551724290752047 14.606375371833689 21.537847177433143 30 10.808057129931083 14.862708211012725 21.794180016612177 29.999999999999989 11.064917946494756 15.119569027576398 22.051040833175851 30.000000000000004 11.322308919918591 15.376960001000233 22.308431806599685 29.999999999999996 11.580232243201246 15.634883324282889 22.566355129882339 30 11.838690122976613 15.893341204058256 22.82481300965771 30 12.097684779627141 16.152335860708781 23.083807666308235 29.999999999999993 12.357218447398207 16.411869528479848 23.343341334079302 29.999999999999996 12.617293374513816 16.671944455595458 23.603416261194909 30.000000000000007 12.877911823293427 16.932562904375068 23.864034709974522 30.000000000000004 13.139076070270095 17.193727151351737 24.125198956951188 30 13.400788406309681 17.455439487391324 24.386911292990774 29.999999999999993 13.663051136731511 15.147737337066822 16.097164496020518 17.096148913857146 18.150150362789386 19.265583746876924 20.450055760908882 21.712679715780432 23.064501716733254 24.519089078882047 26.093361245132655 27.808793997192375 29.693218248188924 30.000000000000004 16.757328437954328 20.811979519035972 27.743451324635423 29.999999999999993 17.792329530842469 21.84698061192411 28.77845241752356 29.999999999999996 18.886504881492908 22.941155962574555 29.872627768174006 30 20.047033356264667 24.101684437346307 30 21.282485046612454 25.337136127694095 30 22.603205729362667 26.657856810444315 30 24.021844053448199 28.076495134529843 30 25.554090171770184 29.608741252851821 30 27.219736531285953 30 29.044245687540172 30 13.925866581430173 17.980517662511815 24.911989468111265 29.999999999999993 14.189237074998646 18.243888156080288 25.175359961679739 30 14.453164966852793 18.507816047934433 25.439287853533887 29.999999999999989 14.717652621357018 16.202338821692329 17.151765980646026 18.150750398482653 19.204751847414894 20.320185231502432 21.504657245534389 22.76728120040594 24.119103201358762 25.573690563507554 27.147962729758163 28.863395481817882 30.000000000000007 17.811929922579836 21.86658100366148 28.79805280926093 30 18.846931015467977 22.901582096549618 29.833053902149068 30 19.941106366118415 23.995757447200063 30 21.101634840890174 25.156285921971815 30 22.337086531237961 26.391737612319602 30 23.657807213988175 27.712458295069823 30.000000000000004 25.076445538073706 29.13109661915535 30 26.608691656395692 30 28.274338015911461 30.000000000000004 14.982702417951405 19.037353499033046 25.968825304632499 30 15.248316751280161 19.302967832361801 26.234439637961255 29.999999999999996 15.514498031321391 19.569149112403032 26.500620918002486 30 15.781248683518381 19.835899764600022 26.767371570199476 29.999999999999989 16.048571148912089 20.103222229993733 27.034694035593184 30 16.316467884275266 20.371118965356906 27.30259077095636 29.999999999999993 16.584941362247864 20.639592443329505 27.571064248928959 30 16.853994071474027 20.908645152555671 27.840116958155122 30 17.123628516740489 21.178279597822133 28.109751403421583 30.000000000000004 17.393847219116459 21.448498300198104 28.379970105797554 30.000000000000007 17.664652716095087 21.719303797176728 28.650775602776182 30 17.936047561736412 21.990698642818053 28.922170448417507 30 18.208034326811909 22.262685407893549 29.194157213493003 29.999999999999996 18.480615598950624 22.535266680032265 29.466738485631719 30 18.753793982786831 22.808445063868476 29.739916869467926 30 19.027572100109396 23.08222318119104 30 19.30195259001276 23.356603671094405 30 19.576938109049546 23.631589190131187 30 19.852531331384959 23.907182412466604 30 20.128734948952729 24.18338603003437 30 20.40555167161293 24.46020275269457 30 20.682984227311497 22.173513535805178 23.133126795280798 24.148670622584376 25.227070515956758 26.376623668899516 27.607386983199845 28.931712790529339 30 23.803539118279531 27.858190199361175 30 24.860139669937393 28.914790751019034 29.999999999999996 25.984953895477918 30 27.187401084250503 29.999999999999996 28.478997170358234 30 29.874027218382718 30 20.961035362241514 25.015686443323155 30 21.239707841006378 25.294358922088023 30 21.519004446784621 25.573655527866265 30 21.798927981496774 25.853579062578419 30 22.079481265973996 26.13413234705564 30 22.360667140128626 26.415318221210271 30 22.642488463126718 26.697139544208362 30 22.924948113562397 26.979599194644038 30 23.208048989634339 27.262700070715979 30 23.491794009324181 27.546445090405825 29.999999999999996 23.776186110576955 27.830837191658595 30 24.061228251483705 28.115879332565349 29.999999999999996 24.346923410465962 28.401574491547606 30 24.633274586462583 28.687925667544228 30 24.920284799118583 28.974935880200228 30 25.207957088976201 29.262608170057845 30 25.496294517668243 29.550945598749884 30 25.785300168113451 29.839951249195096 30 26.074977144714385 30 26.365328573557534 30 26.656357602615564 30 26.94806740195234 30 27.240461163929918 30 27.533542103418231 30 27.827313458007264 30 28.121778488221434 30 28.416940477736983 30 28.712802733601475 30 29.009368586456223 30 29.306641390761264 30 29.604624525022945 30 29.903321392024377 30 1 0.58967610750232979 0.82635710354288527 1.0635040073565789 1.3011186568456667 1.5392029008090866 1.7777585990287545 2.0167876223567309 2.2562918528032552 2.4962731836256395 2.7367335194181246 2.9776747762024884 3.2190988815197086 3.4610077745224697 3.7034034060686207 3.9462877388155673 4.1896627473156141 4.4335304181123298 4.677892749837758 4.9227517533107568 5.1681094516362593 5.4139678803055746 5.6603290872977059 5.9071951331816965 6.1545680912200895 6.4024500474733239 6.6508431009053366 6.899749363490189 7.1491709603198146 7.3991100297128787 7.6495687233247684 7.9005492062587299 8.1520536571782127 8.4040842684202595 8.6566432461102387 8.9097328102776867 9.1633551949734002 9.417512648387742 9.6722074329702785 9.9274418255505275 10.183218117460145 10.439538614656326 10.696405637846551 10.953821522614637 11.211788619548217 11.470309294367443 11.729385928055214 11.989020916988727 12.249216673072526 12.509975623872855 12.77130021275361 13.033192899013692 13.295656158025874 13.558692481377177 13.822304377010839 14.086494369369712 14.351264999541359 14.616618825404693 14.882558421778286 15.149086380570203 15.416205310929623 15.683917839400079 15.952226610074412 16.221134284751511 16.490643543094674 16.760757082791887 17.031477619717808 17.302807888097679 17.574750640672924 17.847308648868783 18.120484702963754 18.394281612261 18.66870220526167 18.943749329840291 19.219425853422003 19.495734663161965 19.772678666126836 20.050260789478202 20.328483980658255 20.607351207577576 20.886865458805094 21.167029743760235 21.447847092907413 21.729320557952597 22.011453212042351 22.294248149965213 22.57770848835527 22.861837365898324 23.146637943540409 23.432113404698764 23.718266955475361 24.00510182487297 24.292621265013725 24.580828551360401 24.869726982940282 25.159319882571808 25.449610597093795 25.740602497597578 26.032298979661885 26.324703463590573 26.617819394653264 26.91165024332896 27.206199505552512 27.501470702964202 27.797467383162484 28.09419311995957 28.391651513640433 28.689846191224902 28.988780806732979 29.000000000000057 2.3762227618970844 6.4308738429787269 13.362345648578179 29.000000000000014 2.61644335641