<?xml version="1.0"?><VTKFile type="PolyData" version="0.1" byte_order="LittleEndian">
    <PolyData>
        <Piece NumberOfLines="1967" NumberOfPoints="6434">
            <PointData Scalars="Pointdata">
                <DataArray type="Float32" Name="time" NumberOfComponents="1" format="ascii">0 0.25381893448949838 0.46257980790473241 0.6766941035261016 0.89644362797616939 1.1221330424152964 1.3540924027093786 1.5926800626172462 1.838286004089795 2.0913356723757919 2.3522944106350629 2.6216726101572121 2.9000317193916048 3.187991289585868 3.4862372793132308 3.7955318978441452 4.1167253427562418 4.4507698867806296 4.7987369017253743 5.1618375864221946 5.5414484099631176 5.9391426190233929 6.3567296308218157 6.7963048054250912 7.2603130625677599 7.7516312377592538 8.2736762185533941 8.8305491956173068 9.4272315448682189 10.069856238354891 10.766092672995967 11.525707021013787 12.361403899964591 13.290137953134963 14.335250196800919 15.53014224120054 16.925043848137975 18.600644155246947 20.699119631392509 23.50866280717965 27.774056765625648 42.73524833367987 57.679756579500868 0.5689506731462709 0.88929933341385869 1.2899247826711857 1.7344918785389223 2.1543579154867225 2.6767160936279848 3.4905164487057618 4.2218693852008222 4.669836505167547 5.4671788839055298 6.3345349059502052 7.4623549359007573 8.8717581422346878 10.638752686739727 12.778349926664173 34.945908498598641 42.259629504281492 1.7958503509584425 1.8535100773693172 2.1459552944579916 3.2948423591033427 1.9188051637165737 3.3263469921515978 3.2948423591033422 4.7630105823756939 2.2639868206865135 2.3273104195393342 2.6469027567026746 4.0621500442756595 2.4175502816262662 3.5866651896195667 4.0621500442756595 5.5113604933924965 2.7899036600094149 2.8412708780301488 3.0951436747093899 4.2043564387894188 2.911236289635077 4.5102765487218193 4.2043564387894188 6.038726928308793 3.2934373709934679 3.3394318257952484 3.5671301417885268 4.6561924576942255 3.4141593827200336 5.1153809984837402 4.6561924576942255 5.9070214587796874 3.9302118076688073 3.9835493104207353 4.2475879193813633 5.3645608319823896 4.0518715911269254 5.3678780305102078 5.3645608319823888 6.7298027800518323 4.9485463733873782 5.0139812469436382 5.2947818844558761 6.6130803074650668 5.1040332258080259 6.3418738234411034 6.6130803074650668 7.8766329893721734 5.8961930375732816 5.9582681671716839 6.256609428956696 7.6116342007265807 6.0471214571044767 7.5488611465799416 7.6116342007265816 9.2362234490825728 6.4946954557190342 6.5523595509620538 6.853650326841529 8.1326823593675606 6.6304729452846667 7.9949622012016048 8.1326823593675606 9.6805813349312668 7.6007441892745975 7.6616230521034279 7.9453661117795766 9.2646179954005525 7.7502682340949596 9.2848855106064239 9.2646179954005525 10.813395817065322 8.8772114168315213 8.9184276204380364 9.1405810627430863 10.151499144942889 8.9842009867808521 10.49685988047008 10.151499144942891 11.58784839419461 10.692460558024564 10.751252733423996 11.014826588914334 12.29342185349139 10.840872879782019 12.663712848280806 12.29342185349139 13.768994508466667 13.34523630545648 13.418477616055299 13.742995107932607 15.111169604710085 13.50281275681832 14.735933082048742 15.111169604710085 16.557799916553112 17.935723299492388 17.992580184906608 18.255769216960001 19.312083123891526 18.054439513585642 19.369290151517443 19.312083123891526 20.372362346836255 42.259629504281492 42.319314808664451 42.58693336124206 43.869184724392042 42.408184730273206 43.728842175086427 43.869184724392042 45.063659541069079 0.78584598461349708 0.98097667041922532 1.1944854114712415 1.7587710998350008 2.2127149322219593 2.5144022091551168 2.7515382889856133 3.1849192409407676 3.6870577065834338 4.0862480919553663 4.5216296579717028 5.0057727754017467 5.5655746874549994 6.0892738188192101 6.6931819525370209 7.2767924935212172 7.9615701327329429 8.5232349042130622 9.206328848142423 9.6235506543779206 10.16600324662533 10.748415107513274 11.432253204038741 12.146239683303763 12.824783730105469 13.705727621836237 14.428651218356325 15.184676087460799 16.160122063876976 17.416565214784526 18.753175168930358 19.742025888477549 21.267319401899773 23.068711644489063 24.865140253900851 27.010405735607669 29.33531048392614 31.722747499289977 33.726570529442547 37.728356731734841 42.354261387458884 48.773357800786513 103.94225863723557 1.6022189873562498 1.6648219698339897 1.959474301458854 3.1065619097574739 1.7299432492289653 3.0843122694915373 3.1065619097574739 4.6227405514157223 1.8248651447811317 1.8941462785906853 2.1866226502861297 3.4140788161910898 1.9698725443199872 3.6274271344155897 3.4140788161910898 5.0021020784853185 2.413966876134622 2.4858660006464288 2.7692951993853598 4.0809997178757822 2.5750597415503731 3.8870194493497308 4.0809997178757822 5.3373158870572368 2.8885975542377027 2.9348799137541333 3.1792885945169145 4.2001929191324123 2.9962115289658269 4.6336122966885585 4.2001929191324123 5.6538199388094794 3.2044015434834616 3.2592067906813522 3.5185642140069184 4.6478038833830801 3.3304867346448233 4.7085831961532572 4.6478038833830801 6.0919210434833895 3.4528453715523062 3.5097128305789633 3.7820463005083025 5.0399444215801186 3.5935229865988672 4.7117805409966502 5.0399444215801186 6.3168863066610177 3.9073846375971701 3.9621193759791771 4.2129185740740018 5.4435955491436117 4.0491201424354708 5.2549429565469232 5.4435955491436108 6.9485094329831814 4.43485801558875 4.4918030806055462 4.7464242435003126 5.9545149184391502 4.5748097947616211 6.0745268408131645 5.9545149184391502 7.3167424699083732 4.8548379667187795 4.9238157172002461 5.255328021864984 6.6670001458653267 5.01094734155095 6.6327510809807908 6.6670001458653267 7.8020730434507133 5.3135710558436022 5.3640380569668409 5.6040051724965334 6.6566103722393581 5.4309159657545258 6.7977147059329788 6.6566103722393581 7.9685117857602226 5.8245381396925664 5.876147175094669 6.1421632629609428 7.3273451008958945 5.9520145508862381 7.2417879667526694 7.3273451008958945 8.5837792683611482 6.4165231647071401 6.4879264441879982 6.7902790552965699 8.0205312998500009 6.5616279023298549 7.7194831098775119 8.0205312998500009 9.1698879625640366 6.9715083276025913 7.0406133388245609 7.3410292416450806 8.5738619138820393 7.1148486621617026 8.4681189679843083 8.5738619138820393 10.234487960838681 7.6129694376309267 7.6788919836851361 7.9808615596762813 9.1649184578693177 7.7467779389035698 9.0150920459801558 9.1649184578693177 10.361860328010518 8.2344380902564751 8.2823229057859127 8.5321987518035236 9.7267200126794382 8.3639070749679707 9.929417215471549 9.7267200126794382 11.430975012160484 8.9656956920984037 9.0437843622108716 9.3683832677548189 10.790093589671974 9.1351984747219763 10.424403983532311 10.790093589671976 12.474156932851011 9.567222642457077 9.6320276738152728 9.9158446459291625 11.355842210916485 9.7373379522181249 11.094121514375788 11.355842210916487 12.907236748240242 10.301014884244745 10.356916039878334 10.596724494042094 11.735172388471094 10.435476273156603 11.676645716163842 11.735172388471092 13.167920858414739 10.750451954624289 10.807294530550754 11.057244614118638 12.154009998879053 10.877527846292173 12.12154447681284 12.154009998879053 13.452008967979525 11.336267595326532 11.406108467609384 11.706094552070139 13.109898998848537 11.501709508644074 13.067506392267823 13.109898998848537 14.136283400999771 11.967173031959092 12.026321105605538 12.286144275899577 13.512509448159914 12.110319457130121 13.560911731063802 13.512509448159914 14.964033815026067 12.710632544757253 12.777415338545149 13.08051149742356 14.455452179024537 12.867942955279661 14.387846789435599 14.455452179024537 15.601982114310726 13.490126013617507 13.573367373684089 13.908496557856378 15.488504679487532 13.682386637603717 14.97219628920209 15.48850467948753 17.120943587115246 14.234182787250223 14.274783452458657 14.504270856737868 15.529431179565217 14.340084163181636 15.587431342385326 15.529431179565215 17.081830792869631 15.205213302300752 15.266264521820585 15.542182212862906 16.826995100385215 15.352955756397613 16.948897791133394 16.826995100385215 18.153877055960898 16.006580321151951 16.057371656496585 16.322993751385106 17.497082022512338 16.131877672667862 17.396174351348989 17.497082022512338 19.489951545803763 16.849283521667068 16.901362329724638 17.169189027906505 18.261672993250091 16.965667020579815 18.345309765905775 18.261672993250091 19.437939489340376 17.944068120937285 17.995843587851169 18.259515767008178 19.316054877817702 18.057028214971332 19.414715691152015 19.316054877817702 20.79173026376505 19.367771161582855 19.423579270264103 19.688226578761697 20.814748525892643 19.493175486856074 20.746711644727501 20.814748525892643 22.16136639739829 20.900836575444867 20.96916865077997 21.258909588880588 22.737098812205055 21.078108881056838 22.214619989462271 22.737098812205055 24.137073131566577 22.048654818863117 22.108684954568421 22.393649504333439 23.689282920380645 22.193820652019866 23.393935455823399 23.689282920380649 25.149410023725196 23.844619660070865 23.896566709125366 24.157209381335075 25.158391875673864 23.952295727408011 25.594141674160426 25.158391875673864 26.933287797738146 26.011089024795083 26.067056943813483 26.322125125277193 27.481265178096844 26.143472745610772 27.597127864172478 27.481265178096844 28.631591926588335 28.22915281538145 28.279722422865188 28.55964171794276 29.654850657335832 28.341205881990167 29.231806625624902 29.654850657335832 31.047836309583921 30.968981523352266 31.04127082522426 31.335613775270666 32.760429743715655 31.141834028464896 32.480548918841542 32.760429743715655 33.890298745319804 34.077694700253716 34.138956121991285 34.412020107012495 35.628483043644877 34.217851667379342 35.384511335484603 35.628483043644877 37.140119331630224 37.465584250219791 37.518787303455568 37.819353257429064 38.900891754067899 37.574551695648076 38.91858149965956 38.900891754067899 40.527758612345025 40.510576301550863 40.556283963815616 40.786274574754138 41.711472944478828 40.610128608711591 42.227880491538563 41.711472944478835 43.068146681843643 47.416292001798524 47.474876607079601 47.754449728207327 48.879875108964541 47.540763553851619 48.911741111182863 48.879875108964541 50.559929509011418 58.057667775158599 58.09884910089324 58.313057136589279 59.277990874586564 58.161214186755259 59.599333098838798 59.277990874586564 60.55535083816406 103.94225863723557 104.01355531824113 104.32227896108539 105.54632909664214 104.08492809744541 105.56914957392145 105.54632909664213 106.75990703742673 1.008525847749544 1.3200672791312971 1.5620060702086058 1.909872050278429 2.2022400472251342 2.4916382296631658 2.8690249210770902 3.1601533458481739 3.5078941812125177 3.9052277614679425 4.3054129134086487 4.6300318485863521 4.9979845665011018 5.3750798670763409 5.8516864339273535 6.140783247979952 6.746001634463604 7.1954352342313923 7.6771583087407631 8.141112385919012 8.8033655632938697 9.5240661716887498 10.039319976305519 10.865447845511872 11.60585837619678 12.279311974969643 13.116428684765214 14.028164632776065 14.733242991479379 15.65899716500174 17.008186710076842 17.945576926818639 18.65280615611286 20.253645280291096 21.295161212376705 22.628148963723682 24.516322301383909 26.661283553138944 27.825918345911596 32.197870270685755 36.013639791169567 46.794025803436242 88.816629672678474 1.6803986250750393 1.7360100081626431 1.9887858486982208 3.1673038712210424 1.815578650933215 3.534691090724611 3.1673038712210424 4.293820804431995 1.9293623039575789 1.9824001064925976 2.2448361816332505 3.5783115441509166 2.0790954278837042 3.3514503038037522 3.5783115441509166 4.8405945864811297 2.287573153583359 2.3528193538760953 2.6231763937665811 4.0227869851921776 2.4575251261274307 3.4750652879831838 4.0227869851921776 5.9884470372232936 2.5888640292574387 2.6503972276450547 2.9642443645489367 4.5141285079337781 2.7596558807370632 4.3158356327267118 4.5141285079337781 6.0048001176259298 2.8873052799966548 2.9367018519242372 3.1734619698191935 4.3470222315193841 3.0201170336166459 4.1116406558355276 4.3470222315193841 5.6781304740821037 3.2768081342678403 3.3388240473083832 3.6073323963706625 4.9122104532812854 3.4307202831161479 5.0996033682267115 4.9122104532812854 6.2881869566699482 3.5775404620361275 3.627922732749429 3.8523163737750012 4.8385537215664431 3.691094091745112 5.242363705444947 4.8385537215664431 6.3155493388536579 3.9370546917324543 3.9920947027001281 4.2763980421592018 5.5557015606581981 4.0747418108435616 5.3011244111974287 5.5557015606581981 6.6762698316481126 4.3482549134962412 4.4061692589193635 4.683310033255923 6.0832006015572313 4.5074005670032431 5.7763635907167954 6.0832006015572313 7.3149522543638641 4.7628673419575067 4.8238407924608895 5.0913101423661624 6.3201867290043703 4.9059702408527093 6.327517433755582 6.3201867290043703 7.6985033999640047 5.0995401079337714 5.1599941415642672 5.473234462040363 6.7643401285581035 5.2367026980788518 6.5272812523638679 6.7643401285581044 7.9648780213573165 5.4815475917284928 5.5390915882987564 5.8210071805649584 7.1385491850689338 5.6276628504032855 7.048329004420502 7.1385491850689338 8.5199051076549601 5.8734921476648356 5.9461821106117103 6.2151560300436888 7.4916708782205026 6.0355646079487606 7.2452265689251112 7.4916708782205035 9.0160195587330705 6.3695340608989399 6.42538685693874 6.6776918096152871 7.9666966923283242 6.5199946373906288 7.9413852600688024 7.9666966923283251 9.5061186560057607 6.670794964402929 6.7218150699707806 6.9835494444003743 8.0915918333188763 6.7894176524422143 7.9391483335382622 8.0915918333188763 9.597925306805994 7.3024323547566805 7.3608576848050369 7.6432677175951866 8.9059728282727963 7.442412795160628 8.7010525489058583 8.9059728282727963 10.284484599848277 7.7723525163106002 7.8298092916629649 8.1192357599978688 9.3547581804828308 7.9059154384528059 9.209599334332232 9.3547581804828308 10.948192658302894 8.2768921817587078 8.3303062730391382 8.5792250630563771 9.7182464980245342 8.4057222599356045 9.6206015044753066 9.718246498024536 11.288814446230258 8.763694945048055 8.8181038434128904 9.0593094451537972 10.075648131733665 8.8807138745609606 10.141103327835735 10.075648131733665 11.456740800777961 9.4601183544736536 9.5373668380343855 9.8495629479750004 11.372996226791791 9.6457460157287116 10.880290022607793 11.372996226791791 12.615336613030335 10.220198335575152 10.270842873812281 10.538564499147085 11.640561076905685 10.336111428122509 11.841343101976365 11.640561076905684 12.987394399990892 10.765086745208349 10.821128740914048 11.084695088231191 12.229850469718903 10.893313100682706 12.207561770886711 12.229850469718903 13.65898336715362 11.641466322110904 11.703527370012484 12.005080159729662 13.163853052167241 11.768268421697877 13.378819287430465 13.163853052167241 14.329971454181338 12.429960973884667 12.479154367641941 12.736458995264895 13.78092599381459 12.540248084600218 13.949157936933744 13.78092599381459 15.008897837330689 13.14982258798409 13.207738661741709 13.488630382211463 14.770755015202427 13.292133890751744 14.93449533544289 14.770755015202429 16.148066529322957 14.048421088687737 14.107619473677984 14.389629449453572 15.620253284166928 14.185414438773016 15.611820488142675 15.620253284166928 16.905529232232752 15.032267999213021 15.077086295305488 15.312065115852107 16.384770944453866 15.147244957116044 16.614322488379027 16.384770944453866 17.587940061618237 15.797077959017098 15.853427023660004 16.122708415007885 17.293812414053249 15.927202208518292 17.038205636954054 17.293812414053249 18.625986078942251 16.806936490051513 16.848354110153672 17.114617042244944 18.365501664016485 16.931176362729889 18.392634460391236 18.365501664016485 19.368241298914242 18.291368045285878 18.340435106476388 18.609630590946136 19.719079246137841 18.40600818721046 19.695774010215914 19.719079246137841 20.908990311464176 19.332510652969468 19.380534970270201 19.604202020821575 20.677813183248716 19.454821218393437 20.927378434103691 20.677813183248713 21.993770175084347 20.12385999465171 20.18686542929645 20.473404117956765 21.768762225024034 20.271865227370746 21.630060029875448 21.768762225024034 23.273672568114073 21.935748668297155 21.981357789697842 22.237330540392737 23.375990589857452 22.053637750153193 23.351616348777618 23.375990589857452 24.888882926487515 23.1317625087521 23.185155510591169 23.429425578342364 24.588067302052067 23.264581062422344 24.714107257062292 24.588067302052067 25.926283152049137 24.685105832062682 24.74376966126794 25.043632527219593 26.532261098002714 24.849198276120504 26.247605236276627 26.532261098002714 28.051763393772067 26.935953266619858 26.993398722243619 27.255025163749721 28.518342988608705 27.081457032410363 28.60241169616388 28.518342988608705 29.804868364630803 29.580515970105047 29.62776858070799 29.852620460281138 30.83982832562744 29.690541042815351 31.326298710698051 30.83982832562744 31.957696260969225 31.063985247270868 31.128846972203846 31.4330034686825 32.656083853797234 31.200506831066491 32.456967720766563 32.656083853797234 34.270813469277343 37.047765470726944 37.117084768109727 37.386191008373466 38.714665327302505 37.212950652630866 38.507277465006389 38.714665327302505 40.362561408649505 43.119761390456993 43.176708433382871 43.451420728184239 44.671047833218445 43.254975386259908 44.609020424831733 44.671047833218445 45.93938691029922 88.816629672678488 88.869867732634887 89.135892200055267 90.332445151254049 88.947356297044465 90.103441005470785 90.332445151254049 91.610533974018963 1.2373072822203004 1.4859132338099277 1.7268129339435958 2.0683539684632199 2.4592529615967322 2.7158912506862598 3.0516215913853619 3.4912174240118161 3.9340955356782352 4.2980880407025595 4.6712162642772475 5.1066104033765178 5.5800624594441963 6.361531132383357 6.8530289026795561 7.3872046463504724 8.0420567562377379 8.8363744147199981 9.567292083268752 10.372248685013746 11.143806998359075 12.251495482863058 13.718064574103689 15.053229158398874 17.38696570633444 20.757083058327972 25.286253641330131 56.313731215290566 1.8993812070578187 1.9847869130531852 2.3692978902121391 3.9623986915709755 2.0812257747978657 3.2895388846300064 3.9623986915709755 5.4000537409144282 2.1533093026030627 2.1921091204784995 2.3952685283655635 3.3859046762375753 2.2609993950614733 3.7730188354365359 3.3859046762375753 5.0736455408153951 2.5140482747286521 2.5694648480320326 2.8383755250602305 3.976504293379052 2.6392437086755538 4.1461636794795247 3.976504293379052 5.3219932416472409 2.9280139681821478 2.9962004547769538 3.3385335755262004 4.6532112284531113 3.069359019329414 4.3221001073982475 4.6532112284531113 5.962266639676324 3.2004615372916838 3.2522489372874208 3.5048736299007488 4.7246659570106999 3.3367800231145028 4.9991720984979287 4.7246659570106999 6.3529783524592087 3.5577070154038433 3.6136552947176304 3.8805537895852864 4.9980969046601773 3.6815882463444476 4.8390933733324362 4.9980969046601773 6.6940272369684166 4.0269743741192912 4.0955818980041885 4.4006930398367832 5.689699557961589 4.1751604429235361 5.7209195434535651 5.689699557961589 7.0354947386046547 4.5015684031606122 4.5568277803268566 4.7892183374729935 6.0054172278105939 4.6485713333024092 6.106271225547057 6.0054172278105939 7.250790571732372 4.8930813738940095 4.9479132589389652 5.1964556524075665 6.2023910731060861 5.0074279561668771 6.446283413956488 6.2023910731060852 7.5511827379466236 5.2958617213917805 5.3551744769265612 5.6394660805208616 6.8948158233505348 5.4353735470261348 6.9393344435972253 6.8948158233505357 8.3012017560332687 5.7678084015151061 5.8118189655546075 6.0460103987858931 7.1513678522939825 5.8863131046994122 7.2466993516104035 7.1513678522939825 8.9377949219924293 6.2835487607860889 6.3401719772538776 6.5741546776226025 7.7378877587276484 6.4242081533379976 7.7080753323520046 7.7378877587276484 9.2034667434449204 7.1411142571991837 7.1918801479011023 7.4328400598941782 8.6707242275018288 7.2828278443506429 8.5059945069114011 8.6707242275018288 10.292930828978717 7.6848560683049669 7.7334598856574255 7.9968878428761005 9.1182918424088708 7.8019113471305817 9.1688125313465232 9.1182918424088708 10.494561602605955 8.2800177140692988 8.3392165702254051 8.6036386226939072 9.7694077787396889 8.4140815905639901 9.9179909582020453 9.7694077787396889 11.239188622083145 9.0161502893762346 9.0907472199458219 9.4043101049463438 10.791347026454488 9.1806458140967084 10.585900891501272 10.791347026454488 12.128638204593031 9.9197505696862613 9.9789777371098314 10.248830174233763 11.407386500317429 10.051415228698984 11.248858115377145 11.407386500317429 12.99488556715373 10.762862110251952 10.83029218202798 11.126319327999086 12.51477543962357 10.924851543622717 12.299131799871152 12.51477543962357 13.657299760206476 11.706032969712371 11.753084390625103 11.985327879445302 13.05915831080738 11.824513525513115 13.104877759426532 13.05915831080738 14.682045185684489 12.626489310967003 12.710642408210614 13.060199293048331 14.482097242120169 12.795987362721609 14.179952687593209 14.482097242120169 16.118611585272792 13.980815822512273 14.034834368915117 14.315757271193396 15.729044761647721 14.136020623609872 15.4663404401692 15.729044761647721 17.120600936909629 15.847234085347097 15.909301863068631 16.196902777155881 17.371492906715851 15.979234135097901 17.485731203211053 17.371492906715851 18.660700917773354 17.640195050008519 17.704642245055293 17.978970775931629 19.221215461393218 17.786806722948409 18.998770186343474 19.221215461393218 20.923240829505872 21.087332512070478 21.137483882835994 21.380215131851603 22.397535044218788 21.199293789143617 22.431039530947015 22.397535044218792 23.594429658375784 27.423863421450879 27.484400958891101 27.772524663260526 28.959629037197018 27.555478963328159 28.610115696730951 28.959629037197018 30.662392407907308 56.313731215290566 56.368933601659997 56.601328503212137 57.669394570236697 56.440621894085204 57.762920753338491 57.669394570236697 59.015011025488441 1.4725341048922145 1.7927382535295706 2.1120604444521001 2.4673242007567739 2.6966971730275526 2.9472519268004365 3.2112813002608771 3.5519063102260042 3.9102288447707214 4.3089649082948354 4.5996938095934805 5.0605054553979354 5.5299682005269988 5.8477605903496963 6.3031579884650339 6.8831765602111563 7.2772234427807572 7.8793023022632545 8.2820846099178986 8.6544149183435337 9.2979613849222282 9.8635573167067356 10.352302411848029 11.159691122468374 11.979721372438725 12.7162276945093 13.423043927842937 14.205207772928805 14.792646193759857 15.382326003135631 16.41178990247203 17.406389871117057 18.349289317811671 19.540027487112443 20.652460433119202 22.744925703173642 24.515905835098433 26.49856846097552 28.480287234230826 31.716352839127389 37.289252469123191 44.720670410264539 81.296422717525004 2.0777027369084431 2.1250571710481601 2.3915731021830156 3.4248748708916024 2.1824600353576153 3.7027400198994367 3.4248748708916024 4.9785787810083075 2.405111343073878 2.4675812720859565 2.7301469246771402 3.8839042243407862 2.5419032442761433 3.7962213685832142 3.8839042243407862 5.2644953802352044 2.7696451833740006 2.8192882243179338 3.0925067382822049 4.2081256740726198 2.8846168627805593 4.3721812195448173 4.2081256740726198 5.6839261327114983 3.0051605937192041 3.0643285679294907 3.3735895842856318 4.719392309358561 3.1484807507395192 4.5808567215267217 4.719392309358561 6.0421281777024598 3.2625696819660184 3.3097365959903224 3.5542442962511864 4.6144098739534307 3.3758471246012305 4.6676978980974448 4.6144098739534307 5.8969848331020618 3.5339892052373836 3.5962817572022203 3.8939994217194038 5.2033123866743374 3.6796326665629304 4.8840397268947768 5.2033123866743374 6.7849359125263424 3.8844084159202716 3.9556050667589875 4.257866923101977 5.5593186473974896 4.0377887070745304 5.4298881800085361 5.5593186473974887 6.9434598160618446 4.2533597990410215 4.3140442425351502 4.6185366431199846 5.7338455782948845 4.3732967588356315 5.5870736948823376 5.7338455782948845 6.9359020839015768 4.6643295545299512 4.7227173339786006 5.0078084502025888 6.1983233514855396 4.7947391198948761 6.510629249603662 6.1983233514855396 7.5042858921502944 4.9642567834723597 5.0169183143813783 5.2748375465910939 6.4131680702057441 5.0894654885719453 6.5140744978246934 6.4131680702057441 7.5629950540353281 5.4401463020266334 5.4911282099713263 5.7506138250185375 6.8362541152515846 5.5566683406721653 7.0325806888317981 6.8362541152515846 8.2320925223025583 5.9256224719216499 5.9730828551054076 6.2042413774009226 7.2302743914778898 6.0388555525666714 7.3829554508303765 7.2302743914778898 8.5527080511994988 6.2546432114575907 6.3103285378021443 6.5749586196432928 7.6582310263890072 6.3747999811871106 7.6475875365376336 7.6582310263890072 9.139073321446892 6.7266989104197608 6.775312561220745 7.0361383163802191 8.1623068835969903 6.8450525365789652 8.4784645214409817 8.1623068835969903 9.4467573804322669 7.3289448024403994 7.3821244223272062 7.6694600325721085 8.9927060190779446 7.4691740856500086 8.7925088926306181 8.9927060190779429 10.187238117763195 7.738767315988599 7.800780195157401 8.099386556672691 9.3103044375213404 7.8721089953259531 9.3107758440477077 9.3103044375213404 10.826603026800166 8.3660582759709179 8.4208153375888042 8.6727812941153477 9.7941116128338539 8.4932510592691752 10.11290767353389 9.7941116128338539 11.129170146111599 8.7864882405328242 8.8279147962539355 9.0570922099173075 10.090080605024411 8.894386225001524 10.161615423742941 10.090080605024411 11.474482265308282 9.175713478674723 9.2644249162317553 9.6391084134560092 11.189066011434493 9.3587599626081595 11.029431482868683 11.189066011434493 12.451761369296733 9.8498392055275232 9.8965912585860973 10.112415318346665 11.121249259493615 9.9647702157947506 11.20472671292476 11.121249259493613 12.663971534769416 10.443825448014424 10.502641918976874 10.756632638992027 11.921168289487722 10.580440588671401 11.855200729480771 11.921168289487722 13.106264098307067 10.958307960414771 11.017529641059197 11.282336257488707 12.389202610741632 11.085142946158401 12.561740200108515 12.389202610741632 13.612606876790371 11.810810378402353 11.874429546849578 12.168243398645096 13.549360689894414 11.968247443707078 13.290439100295696 13.549360689894414 14.960430549870699 12.680205186642944 12.735540779434251 12.979343890838427 14.123315052879429 12.8134525653306 14.084814663302362 14.123315052879427 15.501503924570372 13.464334453361769 13.522254477494556 13.803428463297214 14.930668299237803 13.587874350030265 14.906434354133427 14.930668299237803 16.305150984861378 14.220001898834925 14.271283555929053 14.512898990593056 15.629697854641705 14.345847654283087 15.551643219327786 15.629697854641705 16.717008248707646 15.060091016299097 15.134729066791502 15.430743658282854 16.71270557821261 15.216721785900033 16.828345371060795 16.71270557821261 18.004802536644725 15.6938947485976 15.743425440171984 15.984452762333763 17.09939310033111 15.817709611046775 17.355149075591299 17.09939310033111 18.343902331810941 16.332751604821343 16.387282408206314 16.673996165699105 17.955581185523872 16.46943796609543 18.017135308591605 17.955581185523872 19.463606491278831 17.454886622627768 17.51177039438458 17.793122067118873 19.094267900921533 17.59832074258917 18.795770287290651 19.09426790092153 20.50028269074717 18.548023742608301 18.603902531654651 18.848584990375556 19.904889722897117 18.670554703601017 19.893128575040755 19.904889722897117 21.400691125800524 19.593391290655248 19.640819872875955 19.866897656795857 20.976272334265435 19.718988348258673 21.156446210471486 20.976272334265435 22.430960685240542 20.927587576237979 20.975785716366225 21.212474619658853 22.198445785851948 21.035261486418818 22.426617397011782 22.198445785851945 23.629510750484343 22.189972190688877 22.23741508433238 22.464111092282067 23.534433869310746 22.310200720978475 23.457085098236874 23.534433869310746 24.966544253483985 24.613579421778738 24.675709180074936 24.932541094473351 26.113015174009046 24.755092550583196 26.409875794150224 26.11301517400905 27.302524143592237 26.725460773796819 26.773103691684636 27.016444047800526 28.205454006355559 26.856102441153386 28.501156656127247 28.205454006355559 29.480798886188271 29.173106875076559 29.229592046632057 29.522000445823636 30.845001267436427 29.315487453098182 30.539929176208421 30.845001267436423 32.015295784121605 31.731982373595436 31.783878219236023 32.055659851582298 33.196675902286742 31.852811323378187 33.136555019863493 33.196675902286742 34.344554388717661 36.250282132740608 36.307088525595525 36.588522460359599 37.870248172268994 36.391126926030992 37.580830273341192 37.870248172268994 39.083565129364551 45.907905226158789 45.97172284359813 46.251685746219252 47.515332092588267 46.0548065587666 47.478195731569606 47.515332092588267 48.639514086860764 81.29642271752499 81.346857428347462 81.614038753923268 82.875498222278068 81.431925755014831 82.842869031240596 82.875498222278068 84.107086068582106 1.7145800377838711 1.9306981203151197 2.4252724910289327 2.7298538628563787 3.2396336026582828 3.671257609944619 4.1938254400196504 4.6340925838362734 5.099849516663653 5.6697028663526705 6.1874634165198117 6.9156589534980712 7.4666539831868661 8.320682619554189 8.6322358565044244 9.2725812352406702 10.06760555097078 10.666386106683754 11.478692162593871 12.196707485600173 12.938305943636841 13.805417607527154 14.587927063428351 15.197456542403744 15.557758830233864 16.623030076164749 17.752480684626747 18.757370902950896 19.535572575000785 20.488909250842891 21.448664588372694 23.147304288956462 24.433711284339587 25.174194505960141 26.753599212936209 28.236589198493188 29.864767237825795 31.57942136496823 34.589509117856281 37.82613556580133 41.51803711602102 45.511438212632463 50.120696399214282 56.690134100436211 66.220683351784913 141.81350938439667 2.8010880010281571 2.8492184521880692 3.0929345035700861 4.2598474937490778 2.929221216954751