<?xml version="1.0"?><VTKFile type="PolyData" version="0.1" byte_order="LittleEndian">
    <PolyData>
        <Piece NumberOfLines="1820" NumberOfPoints="22174">
            <PointData Scalars="Pointdata">
                <DataArray type="Float32" Name="time" NumberOfComponents="1" format="ascii">0 0.36419433618122909 0.55287057014542862 0.59087078724965447 0.82391361397954888 1.0147371527095754 1.1169285501714767 1.2813251702143487 1.3998788585825517 1.5632783311591447 1.59902818194284 1.7482381288658566 1.8784760203222666 2.0153192555089543 2.2967339239398341 2.6017918530455684 2.8884226702613254 3.0945328941098111 3.2094312559739984 3.4170513217569303 3.4933711158425713 3.661409841987826 3.9687937867229004 4.2270454279749048 4.487834137775585 4.7319427585184775 4.9477414064702074 5.2586519397479163 5.3579911437315824 5.3746053493567958 5.6075364054378225 5.8642610013630003 5.9755887620168737 6.1691680722586311 6.1980837789623111 6.4517891927308932 6.6615370615591605 6.9441965687304572 7.1101102010259103 7.117974533684813 7.4981944532594289 7.6223513465992596 7.9316656572579376 8.0319370291502103 8.221599513113043 8.4056702357553519 8.5561678839071966 8.8971972470521834 9.1108452751400026 9.3946163884791716 9.4235029151194176 9.5083568572576258 9.6808274432849295 9.8333303425588401 9.9859787985167738 10.165018892371089 10.495360414280894 10.641958189248518 10.798993836948648 10.974953906744389 11.16898928048994 11.249974801519302 11.317504664087542 11.490488690651022 11.752522764610367 11.83354712216075 12.107089551968889 12.268857570474772 12.432600572814806 12.453195382196924 12.6454911512698 12.731883882532072 12.894492781691376 13.323568510584517 13.721178605090207 13.847052619706082 14.126636148175846 14.312570024378749 14.522861031243792 14.664384964189418 14.735294383653299 14.933884326558564 15.175982052288891 15.347049780583804 15.583775750246737 15.877836990655966 16.100172308573885 16.110249127134189 16.213295654099362 16.309944289442548 16.508588121516585 16.917271691767471 17.243176582617497 17.36700690916182 17.550272966215466 17.970716507607573 18.204703186600572 18.367964774296162 18.704534188413202 18.910199318781544 19.072794411524654 19.280306680468346 19.378662512875067 19.599929492231286 19.688536292348878 19.956476283670852 20.387149739372759 20.703225923331996 21.16688711322988 21.617973630951617 21.830543953946375 22.257849873087782 22.527879823727027 22.781699400541385 22.978953973175077 23.224238778152518 23.477147752058308 23.890958160889873 24.189239783749844 24.652987248635171 24.841221009403839 25.209771070331971 25.709991658571155 26.224579722823492 26.480548539356217 26.714687337339793 26.801375658635077 27.0792599629142 27.476568385489543 28.040175650883146 28.268044549945245 28.599204201094057 28.702810641864509 29.064817188391551 29.239597378430751 29.719082468266166 30.032246295355808 30.362348540570054 30.864295541338919 31.070717431683075 31.746235124470239 32.43877735512789 32.827328560237198 33.226297655188283 33.817691342247258 34.322495903772165 34.964581224792575 35.282910820199831 35.71405172326363 36.153558274098728 36.51320416736587 37.04642180946805 37.686373528292769 37.932389981563617 38.20437397831931 38.620364248856802 38.722941425031614 39.337735979784412 39.983586333844919 40.284041917059533 40.742315350526653 41.267711167753014 42.179641207150837 42.887795255167781 43.636854888835046 44.173744808593099 44.677148371807668 45.232880908979524 46.038096536639799 46.963980522871204 47.566066549755284 47.833450723644127 48.533733153504322 49.264973002771463 49.548814105153973 50.174348927866077 50.41459861558041 51.04006444111198 51.94116344919297 52.211731667875313 52.760324468288921 54.085268271799144 54.989035846043045 55.471120308333326 56.06747975973073 56.440275419616 57.203679139819968 57.637629377810917 58.869459485245791 60.238053103945454 60.980248198985826 61.563316038531624 61.881817890041077 62.028919143296221 62.752691564227611 63.461541981787015 64.13188881074872 64.257675307352855 65.6891960961823 66.874380334692859 67.104844861426415 67.727023062636363 69.57307795849087 69.999999999999872 4.2294641678543865 4.3766681771128493 4.5286215136479502 4.685640884473564 4.8480757717653038 5.016313117354807 5.1907828752694947 5.3719646327917223 5.5603955566968279 5.7566799962647197 5.9615011756910263 6.1756355463424191 6.3999705596976044 6.6355268884912988 6.8834865027342298 7.1452285552750059 7.4223758379917211 7.7168557802951057 8.030981819600445 8.3675638963279404 8.7300615538531829 9.7811000201882301 11.136124274490097 13.045923696738695 16.310747373289168 36.765992655813733 6.5162763436377604 6.8980173423980009 7.324767471587796 7.8085768651549072 8.367093821050771 9.0276791717535048 9.8361702997035394 10.878496649166514 12.347573127819285 14.85897595593503 31.544375180529556 6.7578751940139039 7.1396161927741444 7.5663663219639394 8.0501757155310507 8.6086926714269136 9.2692780221296474 10.077769150079682 11.120095499542657 12.589171978195427 15.100574806311172 31.785974030905699 7.0125396420260726 7.394280640786314 7.821030769976109 8.3048401635432203 8.8633571194390832 9.5239424701418169 10.332433598091853 11.374759947554827 12.843836426207597 15.355239254323342 32.04063847891787 7.2817640550403233 7.6635050538005638 8.090255182990358 8.5740645765574701 9.132581532453333 9.7931668831560668 10.601658011106103 11.643984360569076 13.113060839221847 15.624463667337592 32.30986289193212 7.5673148099728058 7.9490558087330454 8.3758059379228396 8.8596153314899517 9.4181322873858146 10.078717638088548 10.887208766038583 11.929535115501558 13.398611594154328 15.910014422270073 32.5954136468646 7.8713005979396273 8.2530415966998678 8.6797917258896629 9.1636011194567732 9.7221180753526379 10.382703426055372 11.191194554005406 12.233520903468381 13.702597382121152 16.214000210236897 32.899399434831423 8.1962670216100513 8.5780080203702909 9.0047581495600859 9.4885675431271981 10.047084499023061 10.707669849725795 11.516160977675831 12.558487327138804 14.027563805791575 16.538966633907322 33.224365858501848 8.5453263107398989 8.9270673095001385 9.3538174386899335 9.8376268322570457 10.396143788152909 11.056729138855642 11.865220266805679 12.907546616268652 14.376623094921422 16.888025923037169 33.573425147631696 8.9223390642746736 9.3040800630349132 9.7308301922247082 10.21463958579182 10.773156541687683 11.433741892390417 12.242233020340453 13.284559369803427 14.753635848456197 17.26503867657194 33.950437901166467 9.3321752602403194 9.713916259000559 10.140666388190354 10.624475781757466 11.182992737653329 11.843578088356063 12.652069216306099 13.694395565769073 15.163472044421843 17.674874872537586 34.36027409713212 9.7811000201882266 10.162841018948466 10.589591148138261 11.073400541705373 11.631917497601236 12.29250284830397 13.100993976254006 14.14332032571698 15.61239680436975 18.123799632485493 34.80919885708002 10.277363318576537 10.659104317336777 11.085854446526572 11.569663840093684 12.128180795989547 12.78876614669228 13.597257274642317 14.63958362410529 16.108660102758058 18.620062930873807 35.305462155468334 10.832138486523274 11.213879485283513 11.640629614473308 12.124439008040421 12.682955963936283 13.343541314639017 14.152032442589054 15.194358792052027 16.663435270704795 19.174838098820544 35.86023732341507 11.461090698160517 11.842831696920756 12.269581826110551 12.753391219677663 13.311908175573526 13.97249352627626 14.780984654226295 15.82331100368927 17.29238748234204 19.803790310457785 36.489189535052311 12.187162740825141 12.56890373958538 12.995653868775175 13.479463262342287 14.03798021823815 14.698565568940884 15.50705669689092 16.549383046353896 18.018459525006662 20.529862353122411 37.215261577716937 13.045923696738694 13.427664695498933 13.854414824688728 14.33822421825584 14.896741174151703 15.557326524854437 16.365817652804473 17.408144002267449 18.877220480920215 21.388623309035964 38.07402253363049 14.096962163073743 14.478703161833982 14.905453291023777 15.389262684590889 15.947779640486752 16.608364991189486 17.416856119139521 18.459182468602496 19.928258947255266 22.439661775371011 39.125060999965541 15.451986417375604 15.833727416135844 16.260477545325639 16.744286938892749 17.302803894788614 17.963389245491349 18.771880373441384 19.814206722904359 21.283283201557126 23.794686029672874 40.480085254267401 17.361785839624218 17.743526838384458 18.170276967574253 18.654086361141363 19.212603317037228 19.873188667739964 20.681679795689998 21.72400614515297 23.193082623805743 25.704485451921485 42.389884676516019 20.626609516174678 21.008350514934921 21.435100644124716 21.918910037691827 22.477426993587692 23.138012344290427 23.946503472240462 24.988829821703433 26.457906300356207 28.969309128471949 45.654708353066482 36.765992655813733 37.147733654573976 37.574483783763768 38.058293177330881 38.616810133226743 39.277395483929475 40.085886611879509 41.128212961342484 42.597289439995258 45.108692268111 61.794091492705533 4.4400788421200179 4.5869738007500143 4.7379496926362954 4.8932397602670346 5.0530978320403683 5.2178008184280253 5.3876515983416358 5.5629823712667523 5.7441585683732299 5.9315834383252364 6.125703452466972 6.3270147115993041 6.5360705856634125 6.7534908824769957 6.9799729281322573 7.2163050582395325 7.4633831782219104 7.7222312705548166 7.9940270345475408 8.2801342817509216 8.5821443423748924 8.9019296685864884 9.2417142173980871 9.604167339673479 9.9925312743590489 10.410797802272793 11.623534494197845 13.187024018392306 15.390638736371463 19.15774297854508 41.982227097457724 6.6436935600991722 7.0254345588594127 7.4521846880492078 7.935994081616319 8.4945110375121828 9.1550963882149166 9.9635875161649512 11.005913865627925 12.474990344280695 14.98639317239644 31.67179239699097 6.8655522259701236 7.2472932247303641 7.6740433539201591 8.1578527474872704 8.7163697033831333 9.376955054085867 10.185446182035903 11.227772531498877 12.696849010151647 15.208251838267392 31.89365106286192 7.096854478246188 7.4785954770064285 7.9053456061962235 8.3891549997633348 8.9476719556591977 9.6082573063619314 10.416748434311966 11.459074783774941 12.928151262427711 15.439554090543457 32.124953315137986 7.3384401443920257 7.7201811431522662 8.1469312723420604 8.6307406659091725 9.1892576218050355 9.8498429725077692 10.658334100457804 11.700660449920779 13.169736928573549 15.681139756689294 32.366538981283824 7.591266316320791 7.9730073150810314 8.3997574442708256 8.8835668378379378 9.4420837937338007 10.102669144436534 10.911160272386571 11.953486621849544 13.422563100502314 15.933965928618059 32.619365153212584 7.8564302520242251 8.2381712507844647 8.6649213799742597 9.1487307735413719 9.7072477294372348 10.367833080139969 11.176324208090005 12.218650557552978 13.687727036205748 16.199129864321492 32.884529088916025 8.1351981563043907 8.5169391550646303 8.9436892842544253 9.4274986778215375 9.9860156337174004 10.646600984420134 11.455092112370171 12.497418461833144 13.966494940485914 16.477897768601657 33.163296993196184 8.4290417501645862 8.8107827489248258 9.2375328781146209 9.721342271681733 10.279859227577596 10.94044457828033 11.748935706230366 12.791262055693339 14.26033853434611 16.771741362461853 33.457140587056386 8.7396853036425668 9.1214263024028064 9.5481764315926014 10.031985825159714 10.590502781055577 11.25108813175831 12.059579259708347 13.10190560917132 14.57098208782409 17.082384915939834 33.76778414053436 9.069166943949277 9.4509079427095166 9.8776580718993117 10.361467465466424 10.919984421362287 11.58056977206502 12.389060900015057 13.43138724947803 14.9004637281308 17.411866556246544 34.09726578084107 9.4199197762186877 9.8016607749789273 10.228410904168722 10.712220297735835 11.270737253631697 11.931322604334431 12.739813732284468 13.782140081747441 15.251216560400211 17.762619388515958 34.448018613110484 9.7948810342999426 10.176622033060182 10.603372162249977 11.087181555817089 11.645698511712952 12.306283862415686 13.114774990365721 14.157101339828696 15.626177818481466 18.137580646597211 34.822979871191741 10.197641752526692 10.579382751286932 11.006132880476727 11.489942274043839 12.048459229939702 12.709044580642436 13.517535708592472 14.559862058055446 16.028938536708218 18.540341364823959 35.225740589418493 10.63265646814374 11.014397466903979 11.441147596093774 11.924956989660886 12.483473945556749 13.144059296259483 13.95255042420952 14.994876773672493 16.463953252325261 18.97535608044101 35.660755305035536 11.105544386565642 11.487285385325881 11.914035514515676 12.397844908082789 12.956361863978652 13.616947214681385 14.42543834263142 15.467764692094395 16.936841170747165 19.44824399886291 36.13364322345744 11.623534494197841 12.005275492958081 12.432025622147876 12.915835015714988 13.474351971610851 14.134937322313585 14.943428450263621 15.985754799726594 17.454831278379366 19.966234106495108 36.651633331089641 12.196145992338206 12.577886991098445 13.00463712028824 13.488446513855353 14.046963469751216 14.707548820453949 15.516039948403986 16.558366297866961 18.027442776519727 20.538845604635476 37.224244829230003 12.836271186122893 13.218012184883133 13.644762314072928 14.12857170764004 14.687088663535903 15.347674014238637 16.156165142188673 17.198491491651644 18.667567970304418 21.17897079842016 37.864370023014686 13.561985276473564 13.943726275233804 14.370476404423599 14.854285797990711 15.412802753886574 16.073388104589309 16.881879232539344 17.924205582002315 19.393282060655089 21.904684888770831 38.590084113365364 14.399760710317354 14.781501709077594 15.208251838267389 15.692061231834501 16.250578187730365 16.911163538433097 17.719654666383132 18.761981015846107 20.231057494498877 22.742460322614622 39.427859547209152 15.390638736371457 15.772379735131697 16.199129864321492 16.682939257888602 17.241456213784467 17.902041564487202 18.710532692437237 19.752859041900209 21.221935520552982 23.733338348668724 40.418737573263257 16.603375428296513 16.985116427056752 17.411866556246547 17.895675949813658 18.454192905709522 19.114778256412258 19.923269384362293 20.965595733825268 22.434672212478034 24.946075040593783 41.631474265188309 18.166864952490972 18.548605951251211 18.975356080441006 19.459165474008117 20.017682429903982 20.678267780606717 21.486758908556752 22.529085258019727 23.998161736672493 26.509564564788242 43.194963789382768 20.370479670470132 20.752220669230372 21.178970798420167 21.662780191987277 22.221297147883142 22.881882498585878 23.690373626535912 24.732699975998884 26.201776454651657 28.713179282767399 45.398578507361933 24.137583912643734 24.519324911403974 24.946075040593769 25.429884434160879 25.988401390056744 26.648986740759479 27.457477868709514 28.499804218172486 29.968880696825259 32.480283524941001 49.165682749535534 41.982227097457724 42.363968096217967 42.790718225407758 43.274527618974872 43.833044574870733 44.493629925573465 45.3021210535235 46.344447402986475 47.813523881639249 50.32492670975499 67.010325934349524 4.4825134447867123 4.8642544435469528 5.2910045727367478 5.7748139663038591 6.333330922199722 6.9939162729024567 7.8024074008524913 8.8447337503154664 10.313810228968237 12.825213057083982 29.510612281678508 4.7428680317190288 4.889661656244658 5.0403187111049839 5.1950480675285791 5.3540760069821287 5.5176482115531744 5.6860320471544181 5.8595191928160846 6.0384286809917551 6.2231104284728769 6.4139493560916998 6.6113702191078136 6.8158433006704406 7.0278911602898315 7.2480966809706926 7.4771127269476674 7.7156738150378752 7.9646103254175395 8.2248659451323096 8.4975192690563048 8.7838108071286403 9.085177107516202 9.4032943713734518 9.740134914982999 10.098041306397882 10.479825261861297 10.888901939730097 11.329476015799237 12.606891997960297 14.253767630111795 16.574908466383171 20.542924934806045 44.287264194008081 6.9208854713072192 7.3026264700674597 7.7293765992572547 8.213185992824366 8.7717029487202289 9.4322882994229627 10.240779427372999 11.283105776835972 12.752182255488743 15.263585083604488 31.948984308199016 7.1369351749771415 7.5186761737373811 7.9454263029271761 8.4292356964942865 8.9877526523901512 9.6483380030928849 10.45682913104292 11.499155480505895 12.968231959158665 15.47963478727441 32.16503401186894 7.3614595473763593 7.7432005461365998 8.169950675326394 8.6537600688935061 9.2122770247893691 9.8728623754921028 10.681353503442139 11.723679852905112 13.192756331557883 15.704159159673628 32.389558384268156 7.5951506754270941 7.9768916741873355 8.4036418033771305 8.8874511969442409 9.4459681528401056 10.106553503542839 10.915044631492874 11.957370980955847 13.426447459608617 15.937850287724363 32.623249512318893 7.838789047824549 8.2205300465847895 8.6472801757745845 9.1310895693416949 9.6896065252375596 10.350191875940293 11.158683003890328 12.201009353353303 13.670085832006073 16.181488660121818 32.866887884716348 8.0932592828314966 8.4750002815917362 8.9017504107815313 9.3855598043486435 9.9440767602445064 10.60466211094724 11.413153238897277 12.45547958836025 13.92455606701302 16.435958895128763 33.121358119723297 8.3595695172631288 8.7413105160233702 9.1680606452131652 9.6518700387802774 10.21038699467614 10.870972345378874 11.679463473328909 12.721789822791884 14.190866301444654 16.702269129560399 33.387668354154926 8.6388755295374153 9.0206165282976549 9.44736665748745 9.9311760510545621 10.489693006950425 11.150278357653159 11.958769485603195 13.001095835066169 14.470172313718939 16.981575141834682 33.666974366429216 8.9325110553791891 9.3142520541394287 9.7410021833292237 10.224811576896336 10.783328532792199 11.443913883494933 12.252405011444967 13.294731360907942 14.763807839560712 17.275210667676458 33.960609892270988 9.2420263075785947 9.6237673063388343 10.050517435528629 10.534326829095741 11.092843784991604 11.753429135694338 12.561920263644375 13.604246613107348 15.073323091760118 17.584725919875865 34.270125144470391 9.5692375172420689 9.9509785160023085 10.377728645192104 10.861538038759216 11.420054994655079 12.080640345357812 12.889131473307849 13.931457822770822 15.400534301423592 17.911937129539339 34.597336354133866 9.9162915116984696 10.298032510458709 10.724782639648504 11.208592033215616 11.767108989111479 12.427694339814213 13.236185467764248 14.278511817227223 15.747588295879993 18.258991123995738 34.944390348590268 10.285751161688914 10.667492160449154 11.094242289638949 11.578051683206061 12.136568639101924 12.797153989804658 13.605645117754694 14.647971467217667 16.117047945870439 18.628450773986181 35.313849998580707 10.680710353534504 11.062451352294744 11.489201481484539 11.973010875051651 12.531527830947514 13.192113181650248 14.000604309600284 15.042930659063257 16.512007137716026 19.023409965831775 35.708809190426301 11.104951643400018 11.486692642160257 11.913442771350052 12.397252164917164 12.955769120813027 13.616354471515761 14.424845599465797 15.467171948928771 16.936248427581539 19.447651255697288 36.133050480291814 11.56316714384997 11.94490814261021 12.371658271800005 12.855467665367117 13.41398462126298 14.074569971965714 14.88306109991575 15.925387449378723 17.394463928031492 19.90586675614724 36.591265980741767 12.061275751254374 12.443016750014614 12.869766879204409 13.353576272771521 13.912093228667384 14.572678579370118 15.381169707320154 16.423496056783129 17.892572535435896 20.403975363551645 37.089374588146171 12.60689199796029 12.988632996720529 13.415383125910324 13.899192519477436 14.457709475373299 15.118294826076033 15.926785954026069 16.969112303489041 18.438188782141815 20.949591610257556 37.63499083485209 13.210042776001472 13.591783774761712 14.018533903951507 14.502343297518619 15.060860253414482 15.721445604117216 16.529936732067252 17.572263081530224 19.041339560182998 21.552742388298739 38.238141612893273 13.884307980121347 14.266048978881587 14.692799108071382 15.176608501638494 15.735125457534357 16.395710808237091 17.204201936187125 18.246528285650101 19.715604764302871 22.227007592418616 38.912406817013142 14.648726821957384 15.030467820717623 15.457217949907418 15.941027343474531 16.499544299370395 17.160129650073127 17.968620778023162 19.010947127486137 20.480023606138907 22.991426434254652 39.676825658849182 15.531183612272844 15.912924611033084 16.339674740222879 16.823484133789989 17.382001089685854 18.04258644038859 18.851077568338624 19.893403917801599 21.362480396454366 23.873883224570115 40.559282449164641 16.574908466383164 16.956649465143403 17.383399594333198 17.867208987900309 18.425725943796174 19.086311294498909 19.894802422448944 20.937128771911915 22.406205250564689 24.917608078680431 41.603007303274964 17.85232444854422 18.234065447304459 18.660815576494254 19.144624970061365 19.70314192595723 20.363727276659965 21.17221840461 22.214544754072975 23.683621232725741 26.19502406084149 42.880423285436017 19.499200080695722 19.880941079455962 20.307691208645757 20.791500602212867 21.350017558108732 22.010602908811467 22.819094036761502 23.861420386224474 25.330496864877247 27.841899692992989 44.527298917587515 21.820340916967101 22.202081915727337 22.628832044917132 23.112641438484243 23.671158394380107 24.331743745082843 25.140234873032878 26.182561222495849 27.651637701148623 30.163040529264364 46.848439753858898 25.788357385389972 26.170098384150212 26.596848513340007 27.080657906907117 27.639174862802982 28.299760213505717 29.108251341455752 30.150577690918723 31.619654169571497 34.131056997687239 50.816456222281772 44.287264194008081 44.669005192768324 45.095755321958116 45.57956471552523 46.138081671421091 46.798667022123823 47.607158150073857 48.649484499536833 50.118560978189606 52.629963806305348 69.315363030899874 4.9562061884042601 5.3379471871645006 5.7646973163542956 6.2485067099214069 6.8070236658172698 7.4676090165200044 8.2761001444700391 9.3184264939330141 10.787502972585784 13.29890580070153 29.984305025296056 5.0705109722570532 5.4522519710172936 5.8790021002070887 6.3628114937742 6.9213284496700629 7.5819138003727975 8.3904049283228321 9.4327312777858054 10.901807756438576 13.413210584554321 30.098609809148851 5.2544772095257306 5.6362182082859711 6.0629683374757661 6.5467777310428774 7.1052946869387403 7.7658800376414749 8.5743711655915096 9.6166975150544829 11.085773993707253 13.597176821822998 30.282576046417528 5.3872069677051915 5.768947966465432 6.195698095655227 6.6795074892223383 7.2380244451182012 7.8986097958209349 8.7071009237709696 9.7494272732339446 11.218503751886715 13.72990658000246 30.41530580459699 5.3872069677503562 5.7689479668875965 6.1956980960773915 6.6795074896445028 7.2380244455403657 7.8986097962431003 8.707100924193135 9.7494272736561101 11.21850375230888 13.729906580424625 30.415305805019152 5.5702326900939374 5.7169349081595318 5.8673050591051572 6.0215312722143626 6.1798165323840726 6.3423802866012675 6.5094602736220857 6.6813146151334371 6.8582242145625933 7.0404955194982666 7.2284637159359963 7.422496437973126 7.6229980961042925 7.8304149521845137 8.0452411011680347 8.2680255612744826 8.4993807285720955 8.7399925237124609 8.9906326542376185 9.2521735448896685 9.5256066643368342 9.8120652198519149 10.112852532003865 10.429477885575604 10.763702352666133 11.117598113673633 11.493626347691801 11.894741136343237 12.324530557395267 12.787412181619811 14.129507454016867 15.859769194125406 18.298436148689007 22.467364843361143 47.116876759334332 7.7258124416710992 8.1075534404313387 8.5343035696211338 9.018112963188246 9.5766299190841089 10.237215269786843 11.045706397736879 12.088032747199852 13.557109225852622 16.068512053968369 32.753911278562896 7.9368689303910562 8.3186099291512967 8.7453600583410918 9.2291694519082039 9.7876864078040668 10.448271758506801 11.256762886456837 12.29908923591981 13.76816571457258 16.279568542688324 32.964967767282857 8.1556018627231293 8.5373428614833688 8.9640929906731639 9.4479023842402761 10.006419340136139 10.667004690838873 11.475495818788907 12.517822168251882 13.986898646904653 16.498301475020398 33.183700699614924 8.3825907918953266 8.7643317906555662 9.1910819198453613 9.6748913134124734 10.233408269308336 10.89399362001107 11.702484747961105 12.74481109742408 14.21388757607685 16.725290404192595 33.410689628787125 8.6184834869476692 9.0002244857079088 9.4269746148977038 9.910784008464816 10.469300964360679 11.129886315063413 11.938377443013447 12.980703792476422 14.449780271129192 16.961183099244938 33.646582323839468 8.86400707717819 9.2457480759384296 9.6724982051282247 10.156307598695337 10.7148245545912 11.375409905293933 12.18390103324397 13.226227382706943 14.695303861359713 17.20670668947546 33.892105914069987 9.1199815696970354 9.501722568457275 9.9284726976470701 10.412282091214182 10.970799047110045 11.631384397812779 12.439875525762815 13.482201875225789 14.951278353878559 17.462681181994306 34.148080406588832 9.387336373565093 9.7690773723253326 10.195827501515128 10.67963689508224 11.238153850978103 11.898739201680836 12.707230329630871 13.749556679093846 15.218633157746616 17.730035985862362 34.415435210456891 9.6671306704995938 10.048871669259832 10.475621798449627 10.959431192016739 11.517948147912602 12.178533498615336 12.987024626565372 14.029350976028345 15.498427454681115 18.009830282796862 34.695229507391389 9.9605787593447275 10.342319758104967 10.769069887294762 11.252879280861874 11.811396236757737 12.471981587460471 13.280472715410507 14.322799064873481 15.791875543526251 18.303278371641994 34.988677596236528 10.269081906748111 10.650822905508351 11.077573034698146 11.561382428265258 12.119899384161121 12.780484734863855 13.588975862813889 14.631302212276864 16.100378690929634 18.61178151904538 35.297180743639906 10.594268817286725 10.976009816046965 11.40275994523676 11.886569338803872 12.445086294699735 13.105671645402468 13.914162773352505 14.956489122815478 16.42556560146825 18.936968429583992 35.622367654178518 10.938047683135693 11.319788681895933 11.746538811085728 12.23034820465284 12.788865160548703 13.449450511251436 14.257941639201473 15.300267988664446 16.769344467317218 19.28074729543296 35.966146520027493 11.302674031741784 11.684415030502024 12.111165159691819 12.594974553258931 13.153491509154794 13.814076859857527 14.622567987807564 15.664894337270537 17.133970815923306 19.645373644039054 36.330772868633581 11.690840499453266 12.072581498213506 12.499331627403301 12.983141020970413 13.541657976866276 14.202243327569009 15.010734455519046 16.053060804982017 17.522137283634791 20.033540111750533 36.718939336345059 12.10579762506319 12.487538623823429 12.914288753013224 13.398098146580336 13.956615102476199 14.617200453178933 15.425691581128969 16.468017930591941 17.937094409244715 20.448497237360456 37.13389646195499 12.551519486567459 12.9332604853277 13.360010614517495 13.843820008084608 14.402336963980471 15.062922314683204 15.871413442633241 16.913739792096216 18.382816270748982 20.894219098864731 37.579618323459258 13.032935771850324 13.414676770610564 13.841426899800359 14.325236293367471 14.883753249263334 15.544338599966068 16.352829727916102 17.395156077379077 18.864232556031848 21.375635384147593 38.061034608742119 13.556265068237229 13.938006066997469 14.364756196187264 14.848565589754376 15.407082545650239 16.067667896352972 16.876159024303007 17.918485373765982 19.387561852418752 21.898964680534498 38.584363905129024 14.129507454016863 14.511248452777103 14.937998581966898 15.42180797553401 15.980324931429873 16.640910282132609 17.449401410082643 18.491727759545618 19.960804238198385 22.472207066314134 39.15760629090866 14.763197511958863 15.144938510719101 15.571688639908896 16.055498033476006 16.614014989371871 17.274600340074606 18.083091468024641 19.125417817487616 20.594494296140383 23.105897124256131 39.791296348850658 15.471602726413924 15.853343725174163 16.280093854363958 16.763903247931069 17.322420203826933 17.983005554529669 18.791496682479703 19.833823031942678 21.302899510595445 23.814302338711194 40.49970156330572 16.274726319735326 16.656467318495565 17.08321744768536 17.567026841252471 18.125543797148335 18.786129147851071 19.594620275801105 20.636946625264081 22.106023103916847 24.617425932032596 41.302825156627122 17.201864466522458 17.583605465282698 18.010355594472493 18.494164988039604 19.052681943935468 19.713267294638204 20.521758422588238 21.56408477205121 23.033161250703984 25.544564078819725 42.229963303414252 18.298436148688999 18.680177147449239 19.106927276639034 19.590736670206145 20.149253626102009 20.809838976804745 21.618330104754779 22.660656454217751 24.129732932870525 26.641135760986266 43.326534985580793 19.640531421086056 20.022272419846296 20.449022549036091 20.932831942603201 21.491348898499066 22.151934249201801 22.960425377151836 24.002751726614811 25.471828205267578 27.983231033383326 44.668630257977853 21.370793161194598 21.752534159954838 22.179284289144633 22.663093682711743 23.221610638607608 23.882195989310343 24.690687117260378 25.733013466723349 27.202089945376123 29.713492773491865 46.398891998086398 23.809460115758192 24.191201114518432 24.617951243708227 25.101760637275337 25.660277593171202 26.320862943873937 27.129354071823972 28.171680421286943 29.640756899939717 32.152159728055459 48.837558952649985 27.97838881043031 28.360129809190553 28.786879938380348 29.270689331947459 29.829206287843324 30.489791638546059 31.298282766496094 32.340609115959069 33.809685594611835 36.321088422727584 53.00648764732211 47.116876759334332 47.498617758094575 47.925367887284366 48.40917728085148 48.967694236747342 49.628279587450074 50.436770715400108 51.479097064863083 52.948173543515857 55.459576371631599 70.000000000000227 5.6102901392234372 5.7571850978534336 5.9081609897397147 6.0634510573704539 6.2233091291437876 6.3880121155314447 6.5578628954450551 6.7331936683701716 6.9143698654766492 7.1017947354286557 7.2959147495703913 7.4972260087027234 7.7062818827668318 7.923702179580415 8.1501842252356766 8.3865163553429518 8.6335944753253298 8.8924425676582359 9.1642383316509601 9.4503455788543409 9.7523556394783117 10.072140965689908 10.411925514501505 10.7743