<?xml version="1.0"?><VTKFile type="PolyData" version="0.1" byte_order="LittleEndian">
    <PolyData>
        <Piece NumberOfLines="10" NumberOfPoints="80">
            <PointData Scalars="Pointdata">
                <DataArray type="Float32" Name="time" NumberOfComponents="1" format="ascii">0 0.061922723107186148 0.12975139192623869 0.20473250661756803 0.28855426138123885 0.38358352925032174 0.493286767998807 0.62303815992504574 0.78184102938004585 0.98657353599761399 1.2751277973788531 1.7684145653776595 4.9159895203542625 4.9159895203542625 5.6229767075310608 6.4495099722551998 7.4444126487585827 8.6942959702328793 10.376625411649053 12.959604573201036 18.766777451451677 38.750105916338782 0 0.025646647193775289 0.052680257828913141 0.07541144486729183 0.10536051565782627 0.13721842285088015 0.16425203348601805 0.20023878329856262 0.2390179004714999 0.27236358772083596 0.31743913621798475 0.3669845875401001 0.41049027603491506 0.47080426992922247 0.5394048306859649 0.60198640216296795 0.69314718055994529 0.80471895621705025 0.91629073187415533 1.1036374565948606 1.4067053583800186 1.9560115027140754 3.453877639491068 0.07541144486729183 0.26719949316847907 0.53750956524058868 0.99960768561388547 4.6805816308553823 0.16425203348601805 0.35604008178720531 0.62635015385931492 1.0884482742326118 4.7694222194741078 0.27236358772083596 0.46415163602202325 0.7344617080941328 1.1965598284674297 4.8775337737089259 0.41049027603491506 0.60227832433610229 0.87258839640821195 1.3346865167815087 5.0156604620230052 0.60198640216296795 0.79377445046415518 1.0640845225362647 1.5261826429095615 5.207156588151058 0.91629073187415533 1.1080787801753427 1.3783888522474521 1.8404869726207491 5.5214609178622451 1.9560115027140754 2.1477995510152628 2.4181096230873722 2.880207743460669 6.561181688702165 </DataArray>
            </PointData>
            <CellData Scalars="CellData">
                <DataArray type="Float32" Name="organtype" NumberOfComponents="1" format="ascii">2 2 4 8 8 8 8 8 8 8 </DataArray>
                <DataArray type="Float32" Name="id" NumberOfComponents="1" format="ascii">1 4 2 5 7 9 11 13 15 17 </DataArray>
                <DataArray type="Float32" Name="emergencetime" NumberOfComponents="1" format="ascii">0.061922723107186148 5.6229767075310608 0.025646647193775289 0.26719949316847907 0.35604008178720531 0.46415163602202325 0.60227832433610229 0.79377445046415518 1.1080787801753427 2.1477995510152628 </DataArray>
                <DataArray type="Float32" Name="creationtime" NumberOfComponents="1" format="ascii">0 4.9159895203542625 0 0.07541144486729183 0.16425203348601805 0.27236358772083596 0.41049027603491506 0.60198640216296795 0.91629073187415533 1.9560115027140754 </DataArray>
                <DataArray type="Float32" Name="age" NumberOfComponents="1" format="ascii">180 175.08401047964571 180 179.92458855513271 179.83574796651399 179.72763641227917 179.58950972396508 179.39801359783704 179.08370926812586 178.04398849728594 </DataArray>
                <DataArray type="Float32" Name="subtype" NumberOfComponents="1" format="ascii">1 2 1 2 2 2 2 2 2 2 </DataArray>
                <DataArray type="Float32" Name="order" NumberOfComponents="1" format="ascii">1 2 1 2 2 2 2 2 2 2 </DataArray>
                <DataArray type="Float32" Name="radius" NumberOfComponents="1" format="ascii">0.20000000000000001 0.012500000000000001 0.20000000000000001 0.02 0.02 0.02 0.02 0.02 0.02 0.02 </DataArray>
            </CellData>
            <Points>
                <DataArray type="Float32" Name="Coordinates" NumberOfComponents="3" format="ascii">0 0 -3 0.0058444452077596873 -0.0097291890747755599 -3.2497422377976157 0.0081199576756958679 -0.021896092438282711 -3.4994356267880962 -0.034167629311519995 -0.058689189720166735 -3.7430706570674146 -0.049092629975086045 -0.080271927120192738 -3.9916897025999605 -0.029379177798243106 -0.10854342521251673 -4.2393025096170591 -0.0097245655239789133 -0.13700272860614157 -4.4868984794281568 0.013088027075992693 -0.16561010096657311 -4.7342063924950448 0.03152977077589688 -0.19890084222373761 -4.9812926702116664 0.060489680749708105 -0.22718514432685327 -5.2279935455016586 0.099531507289075311 -0.2753879205667551 -5.4701757664495139 0.14194043887487764 -0.34144263400353991 -5.7075325808756752 0.19698820192101113 -0.40760359587012646 -5.9422504347098153 -0.049092629975086045 -0.080271927120192738 -3.9916897025999605 0.050519031184326539 0.094502949817863835 -4.1401190101923273 0.1704437089924381 0.26787025913252654 -4.274513384009146 0.2628097640515174 0.48128160663441694 -4.3662963270337105 0.34778308805651265 0.69736815819186382 -4.4589577345535236 0.44485709365975967 0.88614142728964629 -4.5910232119133427 0.53507886269946658 1.0840141440640856 -4.714337527171744 0.56830163737700412 1.2648818373408166 -4.883698457647105 0.58311222580250721 1.3453894896360885 -4.9571774641210213 0 0 -3 0 0 -2.75 0 0 -2.5 0 0 -2.2999999999999998 0 0 -2.0499999999999998 0 0 -1.7999999999999998 0 0 -1.5999999999999999 0 0 -1.3499999999999999 0 0 -1.0999999999999999 0 0 -0.90000000000000013 0 0 -0.65000000000000013 0 0 -0.40000000000000013 0 0 -0.19999999999999996 0 0 0.050000000000000044 0 0 0.30000000000000004 0 0 0.50000000000000022 0 0 0.75000000000000022 0 0 1.0000000000000002 0 0 1.2000000000000004 0 0 1.4500000000000004 0 0 1.7000000000000004 0 0 1.9000000000000006 0 0 1.9999999999999998 0 0 -2.2999999999999998 -0.16362712429686579 -0.11888206453689781 -2.1530536869268815 -0.32725424859373159 -0.23776412907379563 -2.0061073738537631 -0.49088137289059741 -0.35664619361069344 -1.859161060780645 -0.65450849718746329 -0.47552825814759125 -1.7122147477075267 0 0 -1.5999999999999999 -3.0707302677952482e-15 -0.20225424859373686 -1.4530536869268815 -6.1414605355904964e-15 -0.40450849718747373 -1.3061073738537634 -9.2121908033857446e-15 -0.60676274578121059 -1.1591610607806451 -1.2282921071180993e-14 -0.80901699437494745 -1.0122147477075267 0 0 -0.90000000000000013 0.16362712429686219 -0.1188820645369028 -0.75305368692688179 0.32725424859372437 -0.23776412907380559 -0.60610737385376356 0.49088137289058653 -0.35664619361070837 -0.45916106078064528 0.65450849718744875 -0.47552825814761118 -0.312214747707527 0 0 -0.19999999999999996 0.19235522107345185 0.062500000000004594 -0.053053686926881671 0.3847104421469037 0.12500000000000919 0.093892626146236613 0.57706566322035557 0.18750000000001377 0.2408389392193549 0.76942088429380751 0.25000000000001832 0.38778525229247318 0 0 0.50000000000000022 0.062500000000002595 0.19235522107345251 0.64694631307311856 0.12500000000000519 0.38471044214690503 0.79389262614623679 0.18750000000000777 0.57706566322035757 0.94083893921935502 0.25000000000001033 0.76942088429381017 1.0877852522924734 0 0 1.2000000000000004 -0.11888206453688586 0.16362712429687448 1.3469463130731187 -0.23776412907377173 0.32725424859374896 1.4938926261462369 -0.35664619361065758 0.49088137289062345 1.6408389392193552 -0.4755282581475434 0.65450849718749793 1.7877852522924735 0 0 1.9000000000000006 -0.20225424859373686 1.7838188199795351e-14 2.0469463130731187 -0.40450849718747373 3.5676376399590703e-14 2.193892626146237 -0.60676274578121059 5.3514564599386054e-14 2.3408389392193554 -0.80901699437494745 7.1352752799181405e-14 2.4877852522924737 </DataArray>
            </Points>
            <Lines>
                <DataArray type="Float32" Name="connectivity" NumberOfComponents="1" format="ascii">0 1 2 3 4 5 6 7 8 9 10 11 12 13 14 15 16 17 18 19 20 21 22 23 24 25 26 27 28 29 30 31 32 33 34 35 36 37 38 39 40 41 42 43 44 45 46 47 48 49 50 51 52 53 54 55 56 57 58 59 60 61 62 63 64 65 66 67 68 69 70 71 72 73 74 75 76 77 78 79 </DataArray>
                <DataArray type="Float32" Name="offsets" NumberOfComponents="1" format="ascii">13 22 45 50 55 60 65 70 75 80 </DataArray>
            </Lines>
        </Piece>
    </PolyData>
</VTKFile>
