<?xml version="1.0"?><VTKFile type="PolyData" version="0.1" byte_order="LittleEndian">
    <PolyData>
        <Piece NumberOfLines="21" NumberOfPoints="149">
            <PointData Scalars="Pointdata">
                <DataArray type="Float32" Name="time" NumberOfComponents="1" format="ascii">0 0.051623242454021674 0.10817010667571374 0.17067976498778656 0.24055961768089848 0.31978286060809025 0.41123938266868509 0.51940948934439901 0.6517990003495836 0.82247876533737019 1.0630383830182688 1.4742777656869537 4.0983229770337202 4.0983229770337202 4.794557900691796 5.6085207771111714 6.5882924074693392 7.8191667920294972 9.4759104098161835 12.019606154197223 17.73846024220914 37.417870874449669 0 0.025815408455028464 0.053412557049809038 0.076948757058982437 0.089257420525683917 0.10195689985151604 0.11507282898071233 0.12863344965098492 0.14266997757549293 0.1572170352438429 0.17231316643698172 0.18800145169829433 0.20433024950639633 0.22135409527391475 0.23913480030224823 0.25774280655620552 0.27725887222397821 0.29777618997899846 0.3194030784871088 0.34226644402308826 0.3665162927496623 0.39233170120469074 0.41992884979947143 0.44957203866096013 0.48158912173037477 0.51639367252622681 0.55451774444795698 0.59666195071108774 0.64377516497364118 0.69718772202345047 0.75884799395435398 0.83177661667193625 0.92103403719762078 1.0361068661783341 1.1982929094216019 1.4755517816455863 2.7631021115928536 0.076948757058982437 0.26873680536016969 0.5390468774322793 1.0011449978055762 4.6821189430470724 0.076948757058982437 0.26873680536016969 0.5390468774322793 1.0011449978055762 4.6821189430470724 0.12863344965098492 0.32042149795217217 0.59073157002428178 1.0528296903975787 4.7338036356390747 0.12863344965098492 0.32042149795217217 0.59073157002428178 1.0528296903975787 4.7338036356390747 0.18800145169829433 0.37978949999948158 0.65009957207159119 1.112197692444888 4.7931716376863847 0.18800145169829433 0.37978949999948158 0.65009957207159119 1.112197692444888 4.7931716376863847 0.25774280655620552 0.44953085485739275 0.7198409269295023 1.1819390473027993 4.8629129925442953 0.25774280655620552 0.44953085485739275 0.7198409269295023 1.1819390473027993 4.8629129925442953 0.34226644402308826 0.53405449232427549 0.80436456439638504 1.266462684769682 4.9474366300111781 0.34226644402308826 0.53405449232427549 0.80436456439638504 1.266462684769682 4.9474366300111781 0.44957203866096013 0.64136008696214741 0.91167015903425697 1.3737682794075539 5.0547422246490505 0.44957203866096013 0.64136008696214741 0.91167015903425697 1.3737682794075539 5.0547422246490505 0.59666195071108774 0.78844999901227497 1.0587600710843845 1.5208581914576813 5.2018321366991778 0.59666195071108774 0.78844999901227497 1.0587600710843845 1.5208581914576813 5.2018321366991778 0.83177661667193625 1.0235646649731236 1.293874737045233 1.7559728574185298 5.4369468026600263 0.83177661667193625 1.0235646649731236 1.293874737045233 1.7559728574185298 5.4369468026600263 1.4755517816455863 1.6673398299467737 1.9376499020188831 2.3997480223921799 6.0807219676336768 1.4755517816455863 1.6673398299467737 1.9376499020188831 2.3997480223921799 6.0807219676336768 </DataArray>
            </PointData>
            <CellData Scalars="CellData">
                <DataArray type="Float32" Name="organtype" NumberOfComponents="1" format="ascii">2 2 4 8 8 8 8 8 8 8 8 8 8 8 8 8 8 8 8 8 8 </DataArray>
                <DataArray type="Float32" Name="id" NumberOfComponents="1" format="ascii">1 4 2 5 6 9 10 13 14 17 18 21 22 25 26 29 30 33 34 37 38 </DataArray>
                <DataArray type="Float32" Name="emergencetime" NumberOfComponents="1" format="ascii">0.051623242454021674 4.794557900691796 0.025815408455028464 0.26873680536016969 0.26873680536016969 0.32042149795217217 0.32042149795217217 0.37978949999948158 0.37978949999948158 0.44953085485739275 0.44953085485739275 0.53405449232427549 0.53405449232427549 0.64136008696214741 0.64136008696214741 0.78844999901227497 0.78844999901227497 1.0235646649731236 1.0235646649731236 1.6673398299467737 1.6673398299467737 </DataArray>
                <DataArray type="Float32" Name="creationtime" NumberOfComponents="1" format="ascii">0 4.0983229770337202 0 0.076948757058982437 0.076948757058982437 0.12863344965098492 0.12863344965098492 0.18800145169829433 0.18800145169829433 0.25774280655620552 0.25774280655620552 0.34226644402308826 0.34226644402308826 0.44957203866096013 0.44957203866096013 0.59666195071108774 0.59666195071108774 0.83177661667193625 0.83177661667193625 1.4755517816455863 1.4755517816455863 </DataArray>
                <DataArray type="Float32" Name="age" NumberOfComponents="1" format="ascii">180 175.90167702296628 180 179.92305124294103 179.92305124294103 179.87136655034902 179.87136655034902 179.81199854830172 179.81199854830172 179.74225719344381 179.74225719344381 179.6577335559769 179.6577335559769 179.55042796133904 179.55042796133904 179.40333804928892 179.40333804928892 179.16822338332807 179.16822338332807 178.52444821835442 178.52444821835442 </DataArray>
                <DataArray type="Float32" Name="subtype" NumberOfComponents="1" format="ascii">1 2 1 2 2 2 2 2 2 2 2 2 2 2 2 2 2 2 2 2 2 </DataArray>
                <DataArray type="Float32" Name="order" NumberOfComponents="1" format="ascii">1 2 1 2 2 2 2 2 2 2 2 2 2 2 2 2 2 2 2 2 2 </DataArray>
                <DataArray type="Float32" Name="radius" NumberOfComponents="1" format="ascii">0.20000000000000001 0.012500000000000001 0.20000000000000001 0.02 0.02 0.02 0.02 0.02 0.02 0.02 0.02 0.02 0.02 0.02 0.02 0.02 0.02 0.02 0.02 0.02 0.02 </DataArray>
            </CellData>
            <Points>
                <DataArray type="Float32" Name="Coordinates" NumberOfComponents="3" format="ascii">0 0 -3 0.0054284033690357083 0.00081818903857166483 -3.2499397187394599 -0.030489046215168875 0.034264211397077499 -3.4950749883433265 -0.10139665466726898 0.009560863237075088 -3.7335322290664577 -0.18010363831162776 0.0070734130562216356 -3.9708063812980154 -0.27425212854106273 0.0027287322696979343 -4.2023602314849242 -0.36762443731399025 -0.0022059738225101095 -4.4342163520213393 -0.41885603258002679 0.009172991224454561 -4.6786459795237292 -0.47029372784936052 0.017915963276303508 -4.9231408137126742 -0.50459610657537046 0.014997008439063618 -5.1707591218330462 -0.52468549107996987 0.011086491669100008 -5.4199199624336876 -0.5259219639102487 0.0085699338757594737 -5.6699042380828031 -0.52805938139097608 -0.0033833393188928348 -5.9196091653598737 -0.18010363831162776 0.0070734130562216356 -3.9708063812980154 -0.14760176640458358 0.22883176067552227 -4.0815622551092741 -0.12232224197090932 0.45290010133966424 -4.1895174511696087 -0.10817577798002231 0.67588899350808962 -4.3016594661597667 -0.080609833406784348 0.88890363313055765 -4.4295847646987783 -0.05653645203342824 1.1083474904492341 -4.5469085295307741 -0.028528015156225293 1.3174941784915803 -4.6809726572630401 0.025170553642273732 1.5174108892094029 -4.8211503034294649 0.050347370419347885 1.6113198243257316 -4.8726016377395753 0 0 -3 0 0 -2.75 0 0 -2.5 0 0 -2.2999999999999998 0 0 -2.1999999999999997 0 0 -2.0999999999999996 0 0 -1.9999999999999996 0 0 -1.8999999999999995 0 0 -1.7999999999999994 0 0 -1.6999999999999993 0 0 -1.5999999999999992 0 0 -1.4999999999999991 0 0 -1.399999999999999 0 0 -1.2999999999999989 0 0 -1.1999999999999988 0 0 -1.0999999999999988 0 0 -0.99999999999999889 0 0 -0.8999999999999988 0 0 -0.79999999999999871 0 0 -0.69999999999999862 0 0 -0.59999999999999853 0 0 -0.49999999999999845 0 0 -0.39999999999999836 0 0 -0.29999999999999827 0 0 -0.19999999999999818 0 0 -0.09999999999999809 0 0 1.9984014443252818e-15 0 0 0.10000000000000209 0 0 0.20000000000000218 0 0 0.30000000000000226 0 0 0.40000000000000235 0 0 0.50000000000000244 0 0 0.60000000000000253 0 0 0.70000000000000262 0 0 0.80000000000000271 0 0 0.9000000000000028 0 0 0.99999999999999911 0 0 -2.2999999999999998 0.096965852067034147 -0.17749480163410747 -2.1530536869268815 0.19393170413406829 -0.35498960326821494 -2.0061073738537631 0.29089755620110247 -0.53248440490232241 -1.859161060780645 0.38786340826813664 -0.70997920653642987 -1.7122147477075267 0 0 -2.2999999999999998 -0.09696585206705241 0.1774948016340975 -2.1530536869268815 -0.19393170413410482 0.35498960326819501 -2.0061073738537631 -0.2908975562011572 0.53248440490229254 -1.859161060780645 -0.38786340826820959 0.70997920653639013 -1.7122147477075267 0 0 -1.8999999999999995 0.17749480163410458 0.096965852067039449 -1.7530536869268811 0.35498960326820916 0.1939317041340789 -1.6061073738537628 0.53248440490231375 0.29089755620111835 -1.4591610607806447 0.70997920653641833 0.38786340826815779 -1.3122147477075263 0 0 -1.8999999999999995 -0.17749480163410353 -0.096965852067041364 -1.7530536869268811 -0.35498960326820705 -0.19393170413408273 -1.6061073738537628 -0.53248440490231053 -0.29089755620112412 -1.4591610607806447 -0.709979206536414 -0.38786340826816551 -1.3122147477075263 0 0 -1.4999999999999991 0.096965852067030317 -0.17749480163410955 -1.3530536869268808 0.19393170413406063 -0.3549896032682191 -1.2061073738537624 0.29089755620109092 -0.53248440490232862 -1.0591610607806443 0.38786340826812127 -0.7099792065364382 -0.91221474770752597 0 0 -1.4999999999999991 -0.09696585206704858 0.17749480163409959 -1.3530536869268808 -0.19393170413409716 0.35498960326819917 -1.2061073738537624 -0.29089755620114577 0.53248440490229876 -1.0591610607806443 -0.38786340826819438 0.70997920653639834 -0.91221474770752597 0 0 -1.0999999999999988 0.17749480163410666 0.096965852067035618 -0.95305368692688042 0.35498960326821333 0.19393170413407124 -0.80610737385376219 0.53248440490231996 0.29089755620110685 -0.65916106078064396 0.70997920653642665 0.38786340826814247 -0.51221474770752562 0 0 -1.0999999999999988 -0.17749480163410564 -0.096965852067037533 -0.95305368692688042 -0.35498960326821127 -0.19393170413407507 -0.80610737385376219 -0.53248440490231697 -0.29089755620111257 -0.65916106078064396 -0.70997920653642266 -0.38786340826815002 -0.51221474770752562 0 0 -0.69999999999999862 0.096965852067026501 -0.17749480163411166 -0.55305368692688028 0.193931704134053 -0.35498960326822332 -0.406107373853762 0.29089755620107949 -0.53248440490233495 -0.25916106078064371 0.387863408268106 -0.70997920653644664 -0.11221474770752538 0 0 -0.69999999999999862 -0.096965852067044764 0.1774948016341017 -0.55305368692688028 -0.1939317041340895 0.35498960326820339 -0.40610737385376205 -0.29089755620113422 0.53248440490230509 -0.25916106078064383 -0.38786340826817894 0.70997920653640678 -0.1122147477075256 0 0 -0.29999999999999827 0.17749480163410875 0.096965852067031788 -0.15305368692687998 0.35498960326821749 0.19393170413406358 -0.0061073738537616995 0.53248440490232629 0.29089755620109536 0.14083893921935658 0.70997920653643509 0.38786340826812715 0.28778525229247487 0 0 -0.29999999999999827 -0.17749480163410772 -0.096965852067033703 -0.15305368692687998 -0.35498960326821544 -0.19393170413406741 -0.0061073738537616995 -0.53248440490232318 -0.29089755620110114 0.14083893921935658 -0.70997920653643098 -0.38786340826813487 0.28778525229247487 0 0 0.10000000000000209 0.096965852067042849 -0.17749480163410272 0.24694631307312037 0.1939317041340857 -0.35498960326820544 0.39389262614623866 0.29089755620112856 -0.53248440490230819 0.54083893921935688 0.38786340826817145 -0.709979206536411 0.68778525229247522 0 0 0.10000000000000209 -0.096965852067040934 0.17749480163410378 0.2469463130731204 -0.19393170413408187 0.35498960326820755 0.39389262614623871 -0.29089755620112279 0.5324844049023113 0.540838939219357 -0.38786340826816373 0.70997920653641511 0.68778525229247534 0 0 0.50000000000000244 0.17749480163409984 0.096965852067048136 0.64694631307312078 0.35498960326819967 0.19393170413409627 0.79389262614623901 0.53248440490229954 0.29089755620114444 0.94083893921935724 0.70997920653639934 0.38786340826819254 1.0877852522924756 0 0 0.50000000000000244 -0.1774948016341098 -0.096965852067029887 0.64694631307312078 -0.3549896032682196 -0.19393170413405977 0.79389262614623901 -0.5324844049023294 -0.29089755620108965 0.94083893921935724 -0.7099792065364392 -0.38786340826811949 1.0877852522924756 0 0 0.9000000000000028 0.096965852067039018 -0.1774948016341048 1.0469463130731211 0.19393170413407804 -0.35498960326820961 1.1938926261462393 0.29089755620111707 -0.53248440490231441 1.3408389392193576 0.38786340826815613 -0.70997920653641922 1.4877852522924759 0 0 0.9000000000000028 -0.096965852067037103 0.17749480163410586 1.0469463130731211 -0.19393170413407421 0.35498960326821172 1.1938926261462393 -0.2908975562011113 0.53248440490231763 1.3408389392193576 -0.38786340826814836 0.70997920653642355 1.4877852522924759 </DataArray>
            </Points>
            <Lines>
                <DataArray type="Float32" Name="connectivity" NumberOfComponents="1" format="ascii">0 1 2 3 4 5 6 7 8 9 10 11 12 13 14 15 16 17 18 19 20 21 22 23 24 25 26 27 28 29 30 31 32 33 34 35 36 37 38 39 40 41 42 43 44 45 46 47 48 49 50 51 52 53 54 55 56 57 58 59 60 61 62 63 64 65 66 67 68 69 70 71 72 73 74 75 76 77 78 79 80 81 82 83 84 85 86 87 88 89 90 91 92 93 94 95 96 97 98 99 100 101 102 103 104 105 106 107 108 109 110 111 112 113 114 115 116 117 118 119 120 121 122 123 124 125 126 127 128 129 130 131 132 133 134 135 136 137 138 139 140 141 142 143 144 145 146 147 148 </DataArray>
                <DataArray type="Float32" Name="offsets" NumberOfComponents="1" format="ascii">13 22 59 64 69 74 79 84 89 94 99 104 109 114 119 124 129 134 139 144 149 </DataArray>
            </Lines>
        </Piece>
    </PolyData>
</VTKFile>
