<?xml version="1.0"?><VTKFile type="PolyData" version="0.1" byte_order="LittleEndian">
    <PolyData>
        <Piece NumberOfLines="10" NumberOfPoints="80">
            <PointData Scalars="Pointdata">
                <DataArray type="Float32" Name="time" NumberOfComponents="1" format="ascii">0 0.053055910139618266 0.11117208425431813 0.17541653416885863 0.24723571887732854 0.32865759510794063 0.42265225304618725 0.53382433730050549 0.66988797192351579 0.84530450609237451 1.0925402249697032 1.5151924780158901 4.2120611812847164 4.2120611812847164 4.9830556192666604 5.8844192669645761 6.9693956906258929 8.3324374917527599 10.167077023714715 12.983906809459942 19.316833446235311 41.109357240505041 0 0.025646647193775289 0.052680257828913141 0.07541144486729183 0.10536051565782627 0.13721842285088015 0.16425203348601805 0.20023878329856262 0.2390179004714999 0.27236358772083596 0.31743913621798475 0.3669845875401001 0.41049027603491506 0.47080426992922247 0.5394048306859649 0.60198640216296795 0.69314718055994529 0.80471895621705025 0.91629073187415533 1.1036374565948606 1.4067053583800186 1.9560115027140754 3.453877639491068 0.07541144486729183 0.26719949316847907 0.53750956524058868 0.99960768561388547 4.6805816308553823 0.16425203348601805 0.35604008178720531 0.62635015385931492 1.0884482742326118 4.7694222194741078 0.27236358772083596 0.46415163602202325 0.7344617080941328 1.1965598284674297 4.8775337737089259 0.41049027603491506 0.60227832433610229 0.87258839640821195 1.3346865167815087 5.0156604620230052 0.60198640216296795 0.79377445046415518 1.0640845225362647 1.5261826429095615 5.207156588151058 0.91629073187415533 1.1080787801753427 1.3783888522474521 1.8404869726207491 5.5214609178622451 1.9560115027140754 2.1477995510152628 2.4181096230873722 2.880207743460669 6.561181688702165 </DataArray>
            </PointData>
            <CellData Scalars="CellData">
                <DataArray type="Float32" Name="organtype" NumberOfComponents="1" format="ascii">2 2 4 8 8 8 8 8 8 8 </DataArray>
                <DataArray type="Float32" Name="id" NumberOfComponents="1" format="ascii">1 4 2 5 7 9 11 13 15 17 </DataArray>
                <DataArray type="Float32" Name="emergencetime" NumberOfComponents="1" format="ascii">0.053055910139618266 4.9830556192666604 0.025646647193775289 0.26719949316847907 0.35604008178720531 0.46415163602202325 0.60227832433610229 0.79377445046415518 1.1080787801753427 2.1477995510152628 </DataArray>
                <DataArray type="Float32" Name="creationtime" NumberOfComponents="1" format="ascii">0 4.2120611812847164 0 0.07541144486729183 0.16425203348601805 0.27236358772083596 0.41049027603491506 0.60198640216296795 0.91629073187415533 1.9560115027140754 </DataArray>
                <DataArray type="Float32" Name="age" NumberOfComponents="1" format="ascii">180 175.78793881871528 180 179.92458855513271 179.83574796651399 179.72763641227917 179.58950972396508 179.39801359783704 179.08370926812586 178.04398849728594 </DataArray>
                <DataArray type="Float32" Name="subtype" NumberOfComponents="1" format="ascii">1 2 1 2 2 2 2 2 2 2 </DataArray>
                <DataArray type="Float32" Name="order" NumberOfComponents="1" format="ascii">1 2 1 2 2 2 2 2 2 2 </DataArray>
                <DataArray type="Float32" Name="radius" NumberOfComponents="1" format="ascii">0.20000000000000001 0.012500000000000001 0.20000000000000001 0.02 0.02 0.02 0.02 0.02 0.02 0.02 </DataArray>
            </CellData>
            <Points>
                <DataArray type="Float32" Name="Coordinates" NumberOfComponents="3" format="ascii">0 0 -3 -0.010351332079589326 -0.0070455013107355276 -3.249686224761116 -0.027736374359263731 -0.020915941712202017 -3.4986950020923646 -0.04876321231815707 -0.033096017209575238 -3.7475112351768014 -0.12221043712053067 -0.08333270705471206 -3.9811386739810506 -0.19787640992542063 -0.13418610604993339 -4.2139231072452246 -0.26594968319241341 -0.159199169916489 -4.453172717699923 -0.32704218149651287 -0.17935469558162523 -4.6947538871567449 -0.37007119858716991 -0.19547766884024051 -4.9404947128685377 -0.41043869605981692 -0.21275391975053709 -5.1866085001748976 -0.46064761055073078 -0.23020228285032004 -5.4308923914382845 -0.51700374941048233 -0.21891147953103576 -5.674195707020349 -0.60271098826973368 -0.19491460231346167 -5.9078159524849232 -0.12221043712053067 -0.08333270705471206 -3.9811386739810506 -0.27529647779343336 -0.2799987166742483 -3.9614626781632314 -0.43806530278974481 -0.46973477323951507 -3.9589056391760402 -0.64876070488778392 -0.60235957835187004 -3.9361436400622654 -0.83413329459406094 -0.76765210798814032 -3.9075887344936766 -1.0222755024038748 -0.93153530755498393 -3.8919424397187798 -1.2403842524605149 -1.0537104379694502 -3.8932880462505177 -1.4513906200479392 -1.1852392341470304 -3.9192974409692996 -1.5315450368606194 -1.2600909186354887 -3.9107830534600678 0 0 -3 0 0 -2.75 0 0 -2.5 0 0 -2.2999999999999998 0 0 -2.0499999999999998 0 0 -1.7999999999999998 0 0 -1.5999999999999999 0 0 -1.3499999999999999 0 0 -1.0999999999999999 0 0 -0.90000000000000013 0 0 -0.65000000000000013 0 0 -0.40000000000000013 0 0 -0.19999999999999996 0 0 0.050000000000000044 0 0 0.30000000000000004 0 0 0.50000000000000022 0 0 0.75000000000000022 0 0 1.0000000000000002 0 0 1.2000000000000004 0 0 1.4500000000000004 0 0 1.7000000000000004 0 0 1.9000000000000006 0 0 1.9999999999999998 0 0 -2.2999999999999998 0.20225424859373686 -8.1214783832621117e-15 -2.1530536869268815 0.40450849718747373 -1.6242956766524223e-14 -2.0061073738537631 0.60676274578121059 -2.4364435149786334e-14 -1.859161060780645 0.80901699437494745 -3.248591353304844e-14 -1.7122147477075267 0 0 -1.5999999999999999 -0.20225424859373686 3.3295547630184545e-14 -1.4530536869268815 -0.40450849718747373 6.6591095260369091e-14 -1.3061073738537634 -0.60676274578121059 9.9886642890553636e-14 -1.1591610607806451 -0.80901699437494745 1.3318219052073818e-13 -1.0122147477075267 0 0 -0.90000000000000013 0.20225424859373686 -1.2482325000339883e-14 -0.75305368692688179 0.40450849718747373 -2.4964650000679765e-14 -0.60610737385376356 0.60676274578121059 -3.7446975001019646e-14 -0.45916106078064528 0.80901699437494745 -4.9929300001359524e-14 -0.312214747707527 0 0 -0.19999999999999996 -0.20225424859373686 3.7656394247262316e-14 -0.053053686926881671 -0.40450849718747373 7.5312788494524633e-14 0.093892626146236613 -0.60676274578121059 1.1296918274178694e-13 0.2408389392193549 -0.80901699437494745 1.5062557698904924e-13 0.38778525229247318 0 0 0.50000000000000022 0.20225424859373686 -1.6843171617417652e-14 0.64694631307311856 0.40450849718747373 -3.3686343234835304e-14 0.79389262614623679 0.60676274578121059 -5.0529514852252959e-14 0.94083893921935502 0.80901699437494745 -6.7372686469670621e-14 1.0877852522924734 0 0 1.2000000000000004 -0.20225424859373686 4.2017240864340087e-14 1.3469463130731187 -0.40450849718747373 8.4034481728680175e-14 1.4938926261462369 -0.60676274578121059 1.2605172259302027e-13 1.6408389392193552 -0.80901699437494745 1.6806896345736037e-13 1.7877852522924735 0 0 1.9000000000000006 0.20225424859373686 2.478327364227168e-14 2.0469463130731187 0.40450849718747373 4.956654728454336e-14 2.193892626146237 0.60676274578121059 7.4349820926815046e-14 2.3408389392193554 0.80901699437494745 9.9133094569086732e-14 2.4877852522924737 </DataArray>
            </Points>
            <Lines>
                <DataArray type="Float32" Name="connectivity" NumberOfComponents="1" format="ascii">0 1 2 3 4 5 6 7 8 9 10 11 12 13 14 15 16 17 18 19 20 21 22 23 24 25 26 27 28 29 30 31 32 33 34 35 36 37 38 39 40 41 42 43 44 45 46 47 48 49 50 51 52 53 54 55 56 57 58 59 60 61 62 63 64 65 66 67 68 69 70 71 72 73 74 75 76 77 78 79 </DataArray>
                <DataArray type="Float32" Name="offsets" NumberOfComponents="1" format="ascii">13 22 45 50 55 60 65 70 75 80 </DataArray>
            </Lines>
        </Piece>
    </PolyData>
</VTKFile>
