<?xml version="1.0"?><VTKFile type="PolyData" version="0.1" byte_order="LittleEndian">
    <PolyData>
        <Piece NumberOfLines="15" NumberOfPoints="3189">
            <PointData Scalars="Pointdata">
                <DataArray type="Float32" Name="time" NumberOfComponents="1" format="ascii">0 0.061324663847370398 0.12311925307196117 0.185391025315923 0.24814740766390425 0.31139600195902817 0.37514459032899428 0.43940114093234978 0.50417381393554284 0.5694709677319687 0.63530116541486437 0.70167318151658142 0.76859600902751557 0.83607886670871612 0.90413120671305902 0.97276272253073737 1.0419833572757704 1.1118033123312503 1.1822330563721251 1.2532833347854737 1.3249651795094799 1.3972899193136294 1.4702691905440961 1.5439149483598025 1.6182394784862919 1.6932554095163219 1.7689757257879677 1.8454137808730913 1.9225833117112232 2.000498453426268 2.0791737548660127 2.1586241949071621 2.2388651995716118 2.3199126600028719 2.4017829513550559 2.4844929526505721 2.5680600676667766 2.6525022469162209 2.7378380107899396 2.8240864739384151 2.9112673709705112 2.9994010835567977 3.0885086690303871 3.1786118905856791 3.2697332491833571 3.3618960172786414 3.4551242744992812 3.5494429454101089 3.6448778395123527 3.7414556936382666 3.8392042169153271 3.9381521384891633 4.0383292582108732 4.1397665005124589 4.2424959717140958 4.3465510210289349 4.4519663055554837 4.5587778595744854 4.6670231684969883 4.7767412478433666 4.8879727276696494 5.0007599428983669 5.1151470300564492 5.231180030973384 5.3489070040493703 5.4683781437664178 5.5896459091862303 5.7127651622581919 5.8377933168501341 5.9647904995152246 6.093819723121773 6.2249470746010935 6.3582419182137446 6.4937771158992881 6.6316292664619994 6.7718789655583569 6.9146110886957111 7.0599150997303273 7.2078853876725217 7.358621634974198 7.5122292208974528 7.6688196640522426 7.8285111087578425 7.9914288605412862 8.1577059768530074 8.327483919976169 8.5009132801567411 8.678154578216617 8.8593791583695864 9.0447701836855092 9.2345237486985816 9.42885012610156 9.6279751673971052 9.8321418809003251 10.041612214741713 10.256669077683219 10.47761863685588 10.704792939242679 10.938552913235601 11.179291818372461 11.427439226036364 11.683465632308003 11.947887827399974 12.221275175648229 12.504256997881939 12.79753129685875 13.101875130083682 13.41815701794407 13.747351886039239 14.090559189342974 14.449025067555819 14.824169657884815 15.217621076583335 15.631258123927944 16.067264546042111 16.528198822421832 17.017085135222594 17.537533736586205 18.09390290706817 18.691521039269912 19.336997795225464 20.038670976742043 20.807266985769559 21.656910455228346 22.606731044408832 23.683548816254408 24.926643704411706 26.396912894955801 28.196376953595063 30.516289613597934 33.786022862781287 39.375668771967518 55.705205358593844 0.76859600902751568 1.5236438141769422 2.4063643764901701 3.468900014838753 4.8037497485950205 6.600443062588405 9.3590117920508522 15.560953235085703 28.000000000000032 4.0383292582108732 4.8168672947394695 5.7270501052844969 6.82264220419518 8.1990203403764479 10.051610435176656 12.896000773931227 19.290890317077594 28.000000000000043 9.6279751673971052 10.395252353367415 11.292270190424482 12.372015537706069 13.728485605461625 15.55427965533598 18.357528453110792 24.659921686374574 35.999999999999964 11.895215191343183 12.549163776076822 13.313690019982369 14.233954501500326 15.39007082720666 16.946190905794055 19.335393422799488 24.706908711782944 36.000000000000007 0 0.06899908366901307 0.13852690110331381 0.20859161819614286 0.27920159148796725 0.35036537414772084 0.42209172219046481 0.49438960094277062 0.56726819176776677 0.64073689906246145 0.71480535754068208 0.78948343981572799 0.86478126429767788 0.94070920342112918 1.017277892220116 1.0944982372679306 1.1723814260006402 1.250938936444236 1.3301825473665625 1.4101243488764867 1.4907767534941601 1.5721525077177212 1.6542647041134049 1.7371267939577293 1.8207526004622947 1.9051563326137253 1.9903525996633888 2.0763564263038705 2.1631832685716259 2.2508490305179087 2.3393700816929579 2.4287632754915123 2.5190459684110826 2.6102360402780214 2.702351915500353 2.7954125854105429 2.8894376317659889 2.9844472514799674 3.0804622826611667 3.1775042320457882 3.2755953039125472 3.3747584305778173 3.4750173045756987 3.5763964126359507 3.6789210715817156 3.7826174662786602 3.8875126897778598 3.9936347858063628 4.1010127937721821 4.209676796464362 4.3196579706441787 4.4309886407403152 4.5437023358793942 4.6578338505036063 4.7734193088496477 4.8904962335879105 5.0091036189482798 5.1292820086891053 5.2510735792994385 5.3745222288618093 5.4996736720440111 5.6265755417343248 5.7552774978855874 5.885831344190569 6.0182911532746743 6.1527134011631537 6.2891571118597378 6.4276840129630521 6.5683587033477053 6.7112488340502026 6.8564253036275051 7.0039624694004194 7.1539383761574147 7.3064350040798534 7.4615385378603767 7.6193396592263021 7.7799338653538994 7.9434218159731449 8.1099097123220325 8.2795097115231275 8.4523403804313642 8.6285271935526957 8.8082030802708218 8.9915090273600917 9.1785947436257267 9.369619394520905 9.5647524157722845 9.764174416435436 9.9680781834414542 10.176669801637596 10.390169905631918 10.60881508250392 10.832859447739134 11.062576420709386 11.298260730808018 11.540230691159177 11.78883078390375 12.044434609745327 12.307448265134413 12.578314223719476 12.857515815207444 13.145582415487244 13.443095488017153 13.750695649720114 14.069090977213635 14.399066824181769 14.741497492291101 15.097360192130562 15.467751855485474 15.853909527632032 16.2572352953012 16.679327017491666 17.12201655959888 17.587417842667762 18.077987895763496 18.596605376994159 19.14667292706719 19.732252599876901 20.358248089073381 21.030654604150836 21.756908967345201 22.546392407160926 23.411173671458606 24.367145007623218 25.435830038926927 26.647405200933122 28.046066079204927 29.700330783318329 31.724987150786635 34.335223191064685 38.014144262646276 44.303301374505878 62.67638310914257 0.86478126429767799 1.6653606396400029 2.6013118092996437 3.7279214250440686 5.1432664651041113 7.0483055913537269 9.9732240073934317 16.549160487854941 28.000000000000043 4.5437023358793942 5.2579898405095422 6.0930578500320065 7.0982338462014285 8.361023405853599 10.060724504360898 12.670375390940904 18.537512871502098 27.999999999999982 10.832859447739134 11.532738756294792 12.350962254974295 13.335862419985675 14.573179716076819 16.238595423146393 18.795605935344824 24.544394898442196 35.999999999999936 11.827861614968761 12.506348141298789 13.299561503365929 14.254356828176279 15.453853804198369 17.068363769233638 19.547215706993008 25.120284958355434 36.000000000000036 0 0.11907051869241818 0.23818686017550078 0.35734905973154368 0.47655715268347026 0.59581117439516951 0.71511116027131805 0.83445714575754659 0.95384916634060612 1.0732872575482251 1.1927714549492752 1.3123017941539401 1.4318783108135353 1.5515010406208505 1.6711700193099701 1.7908852826564414 1.9106468664774423 2.0304548066316044 2.1503091390193529 2.27020989958273 2.3901571243055622 2.5101508492136304 2.6301911103744908 2.75027794389782 2.8704113859352329 2.9905914726804563 3.1108182403694964 3.2310917252804967 3.351411963733907 3.4717789920926538 3.5921928467619657 3.7126535641897118 3.8331611808662296 3.9537157333244939 4.0743172581402867 4.194965791932022 4.315661371361089 4.4364040331316774 4.5571938139909474 4.6780307507291994 4.7989148801797041 4.9198462392190407 5.0408248647669236 5.1618507937863773 5.2829240632839038 5.4040447103093454 5.5252127719560553 5.6464282853610701 5.7676912877049356 5.889001816212053 6.0103599081505035 6.131765600832221 6.2532189316131683 6.3747199378931567 6.496268657116202 6.6178651267703401 6.7395093843878104 6.8612014675452198 6.9829414138634149 7.1047292610076447 7.2265650466877451 7.3484488086579569 7.4703805847172813 7.5923604127093007 7.7143883305223584 7.8364643760897303 7.9585885873894542 8.0807610024446781 8.2029816593234859 8.3252505961390781 8.4475678510499446 8.5699334622596837 8.692347468017374 8.8148099066173788 8.9373208163995344 9.0598802357493309 9.1824882030977601 9.3051447569215107 9.4278499357431294 9.5506037781308599 9.6734063226989893 9.7962576081076769 9.9191576730631397 10.042106556317819 10.165104296670211 10.288150932965232 10.411246504094033 10.534391048994182 10.65758460664985 10.780827216091666 10.904118916396898 11.027459746689644 11.150849746140638 11.274288953967627 11.397777409435193 11.521315151854925 11.644902220585614 11.768538655033073 11.892224494650488 12.015959778938267 12.139744547444202 12.263578839763657 12.387462695539401 12.511396154461963 12.635379256269456 12.759412040747772 12.883494547730754 13.007626817100027 13.131808888785365 13.256040802764506 13.380322599063357 13.504654317756152 13.629035998965337 13.753467682861748 13.87794940966479 14.002481219642272 14.12706315311077 14.251695250435452 14.376377552030267 14.501110098358129 14.625892929930785 14.750726087308992 14.875609611102714 14.999999999999993 15.124984159127095 15.250018806617286 15.375103983277485 15.500239729963971 15.625426087582724 15.750663097089285 15.875950799488916 16.001289235836811 16.126678447237939 16.252118474847261 16.377609359869883 16.503151143560924 16.62874386722585 16.754387572220331 16.880082299950416 17.005828091872726 17.131624989494277 17.257473034372875 17.383372268116915 17.509322732385588 17.635324468889074 17.761377519388361 17.887481925695628 18.013637729674073 18.139844973238098 18.266103698353508 18.392413947037372 18.518775761358228 18.645189183436255 18.771654255443128 18.898171019602366 19.024739518189186 19.151359793530684 19.278031888006034 19.404755844046313 19.531531704134881 19.658359510807212 19.785239306651096 19.912171134306817 20.039155036467033 20.166191055876965 20.293279235334602 20.420419617690523 20.547612245848274 20.674857162764219 20.802154411447706 20.92950403496129 21.056906076420546 21.184360578994465 21.311867585905269 21.439427140428631 21.567039285893841 21.694704065683677 21.822421523234755 21.950191702037369 22.078014645635704 22.205890397628011 22.333819001666466 22.461800501457532 22.589834940761794 22.71792236339418 22.846062813224137 22.9742563341755 23.10250297022672 23.230802765411024 23.359155763816332 23.487562009585414 23.616021546916127 23.744534420061218 23.873100673328729 24.00172035108184 24.130393497739039 24.259120157774358 24.38790037571718 24.516734196152655 24.64562166372151 24.774562823120256 24.903557719101407 25.032606396473298 25.161708900100482 25.29086527490357 25.420075565859424 25.549339818001357 25.678658076418998 25.808030386258647 25.937456792723136 26.06693734107202 26.196472076621788 26.326061044745703 26.455704290874184 26.585401860494652 26.715153799151736 26.844960152447463 26.974820966041161 27.104736285649647 27.234706157047437 27.364730626066585 27.49480973859708 27.624943540586678 27.755132078041111 27.885375397024305 28.015673543658249 28.146026564123183 28.276434504657857 28.406897411559328 28.537415331183357 28.667988309944281 28.798616394315186 28.92929963082814 29.060038066074021 29.190831746702926 29.321680719423995 29.452585031005633 29.583544728275729 29.714559858121472 29.845630467489773 29.976756603387102 30.107938312879686 30.239175643093727 30.370468641215272 30.501817354490559 30.633221830225899 30.764682115787888 30.896198258603604 31.027770306160491 31.159398306006576 31.291082305750688 31.422822353062301 31.554618495671924 31.686470781370954 31.818379258011891 31.950343973508556 32.082364975835951 32.214442313030517 32.346576033190303 32.478766184474857 32.611012815105582 32.743315973365611 32.875675707600038 33.008092066216093 33.140565097683023 33.273094850532459 33.405681373358334 33.538324714817008 33.671024923627556 33.803782048571591 33.93659613849367 34.069467242301123 34.202395408964321 34.335380687516853 34.468423127055374 34.601522776740062 34.734679685794376 34.867893903505369 35.001165479223872 35.134494462364309 35.267880902405174 35.401324848888819 35.534826351421714 35.668385459674646 35.80200222338263 35.935676692345091 36.069408916426156 36.203198945554462 36.337046829723441 36.470952618991518 36.604916363481955 36.738938113383284 36.873017918949138 37.007155830498498 37.141351898415884 37.27560617315126 37.409918705220385 37.544289545204705 37.678718743751574 37.813206351574486 37.947752419452897 38.082356998232676 38.217020138825937 38.351741892211287 38.486522309434022 38.621361441605998 38.756259339906073 38.89121605557991 39.026231639940249 39.16130614436711 39.296439620307666 39.431632119276657 39.566883692856223 39.702194392696164 39.837564270514164 39.972993378095687 40.108481767294151 40.244029490031295 40.379636598296869 40.515303144149193 40.651029179714932 40.786814757189347 40.922659928836545 41.058564746989376 41.194529264049635 41.330553532488324 41.466637604845495 41.602781533730699 41.738985371822807 41.875249171870259 42.011572986691334 42.147956869173946 42.284400872276123 42.420905049025826 42.557469452521225 42.694094135930918 42.830779152493754 42.967524555519354 43.104330398387852 43.241196734550229 43.378123617528509 43.515111100915632 43.652159238375852 43.789268083644664 43.926437690528964 44.063668112907379 44.200959404730007 44.338311620018992 44.475724812868265 44.613199037443898 44.750734347984121 44.888330798799601 45.025988444273345 45.163707338861059 45.301487537091106 45.439329093564673 45.577232062956021 45.715196500012397 45.853222459554452 45.991309996476055 46.129459165744606 46.267670022401248 46.405942621560719 46.544277018411833 46.6826732682173 46.821131426313997 46.959651548113214 47.09823368910051 47.236877904836156 47.375584250955008 47.51435278316675 47.653183557256128 47.792076629082864 47.93103205458204 48.070049889763979 48.209130190714546 48.348273013595332 48.48747841464354 48.626746450172469 48.766077176571329 48.905470650305539 49.04492692791684 49.184446066023469 49.324028121320289 49.463673150578813 49.603381210647463 49.743152358451631 49.882986650993985 50.022884145354332 50.162844898690061 50.302868968236012 50.442956411304742 50.583107285286772 50.723321647650472 50.863599555942493 51.003941067787643 51.144346240889163 51.284815133028957 51.425347802067485 51.565944305944214 51.706604702677474 51.847329050364728 51.988117407182855 52.128969831387963 52.269886381315921 52.41086711538216 52.551912092081999 52.693021369990845 52.83419500776413 52.975433064137711 53.116735597927779 53.25810266803115 53.399534333425343 53.541030653168825 53.682591686401125 53.824217492342832 53.965908130295944 54.107663659643848 54.249484139851717 54.391369630466322 54.533320191116552 54.675335881513185 54.817416761449294 54.959562890800427 55.101774329524481 55.244051137662225 55.386393375337128 55.528801102755644 55.671274380207493 55.813813268065509 55.956417826786158 56.099088116909371 56.241824199058819 56.384626133942227 56.52749398235121 56.670427805161765 56.813427663334146 56.956493617913118 57.099625730028272 57.242824060893874 57.386088671809354 57.529419624159182 57.67281697941312 57.816280799126574 57.959811144940367 58.103408078581303 58.247071661862009 58.390801956681265 58.534599025024072 58.678462928962006 58.822393730653026 58.966391492342055 59.110456276360786 59.254588145127975 59.39878716114977 59.543053387019519 59.687386885418341 59.831787719114907 59.976255950965822 60.120791643915851 60.265394860997816 60.410065665333079 60.55480412013145 60.699610288691431 60.844484234400547 60.989426020735188 61.134435711261141 61.279513369633449 61.424659059596699 61.569872844985319 61.715154789723464 61.860504957825498 62.005923413395898 62.151410220629515 62.296965443811935 62.442589147319246 62.588281395618672 62.734042253268335 62.879871784917682 63.025770055307525 63.171737129270397 63.317773071730429 63.46387794770385 63.610051822298892 63.756294760716059 63.902606828248459 64.04898809028164 64.195438612294154 64.341958459857409 64.488547698635955 64.635206394387851 64.781934612964463 64.928732420311036 65.075599882466562 65.222537065564097 65.369544035831012 65.516620859588954 65.663767603254314 65.810984333338126 65.958271116446369 66.10562801928026 66.253055108636204 66.400552451406213 66.548120114577884 66.695758165234651 66.843466670556126 66.991245697817959 67.139095314392392 67.28701558774813 67.435006585450665 67.583068375162441 67.731201024643141 67.879404601749755 68.027679174436699 68.176024810756175 68.32444157885817 68.472929546990983 68.621488783500908 68.770119356832936 68.918821335530538 69.06759478823605 69.21643978369093 69.365356390735712 69.514344678310493 69.663404715454874 69.8125365713082 69.96174031510995 70.111016016199628 70.260363744017255 70.409783568103293 70.55927555809896 70.708839783746569 70.858476314889401 71.00818522147226 71.157966573541358 71.307820441244644 71.457746894832098 71.607746004655738 71.757817841170024 71.907962474931807 72.058179976600712 72.208470416939377 72.358833866813441 72.509270397191997 72.659780079147552 72.810362983856393 72.961019182598704 73.11174874675892 73.262551747825654 73.413428257392184 73.564378347156477 73.715402088921408 73.866499554595123 74.017670816190986 74.16891594582809 74.320235015731157 74.471628098230909 74.623095265764363 74.774636590874778 74.92625214621215 75.077942004533227 75.229706238701709 75.381544921688672 75.533458126572512 75.685445926539373 75.837508394883201 75.989645605005975 76.141857630418102 76.294144544738316 76.446506421694281 76.598943335122399 76.751455358968258 76.904042567286908 77.056705034242825 77.209442834110448 77.36225604127408 77.5151447302283 77.668108975578093 77.821148852039215 77.974264434438183 78.127455797712727 78.280723016911779 78.434066167195851 78.587485323837328 78.740980562220372 78.894551957841585 79.048199586309792 79.201923523346593 79.355723844786439 79.509600626576827 79.663553944778712 79.81758387556647 79.971690495228245 80.125873880166353 80.280134106897123 80.434471252051537 80.588885392375147 80.743376604728397 80.897944966087053 81.052590553542004 81.207313444300013 81.362113715683478 81.516991445130913 81.671946710197247 81.826979588553755 81.982090157988679 82.137278496407163 82.292544681831558 82.447888792401685 82.603310906375199 82.758811102127623 82.914389458152641 83.070046053062384 83.225780965587589 83.381594274578021 83.537486059002404 83.693456397949063 83.849505370625749 84.005633056360097 84.161839534599977 84.318124884913431 84.474489186989274 84.630932520636975 84.787454965787148 84.944056602491813 85.10073751092439 85.257497771380272 85.414337464276841 85.571256670153716 85.728255469673229 85.885333943620353 86.04249217290328 86.199730238553386 86.357048221725591 86.514446203698725 86.671924265875532 86.829482489783274 86.987120957073572 87.144839749522916 87.30263894903301 87.460518637630642 87.618478897468435 87.776519810824652 87.934641460103776 88.092843927836512 88.251127296680394 88.409491649419593 88.567937068965605 88.726463638357203 88.885071440760782 89.043760559470797 89.202531077909754 89.361383079628666 89.520316648307244 89.679331867754058 89.838428821907158 89.997607594833795 90.156868270731238 90.316210933926655 90.475635668877516 90.635142560171957 90.794731692528799 90.954403150798157 91.114157019961411 91.27399338513159 91.433912331553628 91.593913944604751 91.753998309794653 91.914165512765678 92.074415639293207 92.234748775285922 92.395165006786144 92.555664419970029 92.7162471011478 92.876913136764088 93.037662613398183 93.198495617764436 93.35941223671243 93.520412557227218 93.681496666429652 93.842664651576655 94.003916600061601 94.165252599414586 94.326672737302459 94.488177101529416 94.649765780037086 94.811438860905071 94.973196432350846 95.135038582730502 95.296965400538596 95.458976974408699 95.621073393113718 95.783254745565969 95.945521120817773 96.107872608061427 96.270309296629719 96.432831275996094 96.59543863577511 96.758131465722627 96.920909855736014 97.083773895854648 97.246723676259961 97.409759287276103 97.5728808193699 97.736088363151296 97.899382009373653 98.062761848933974 98.226227972873417 98.38978047237741 98.553419438775933 98.717144963543944 98.880957138301596 99.044856054814659 99.208841804994776 99.372914480899638 99.53707417473349 99.701320978847278 99.865654985739141 100.03007628805464 100.19458497858697 100.35918115027735 100.52386489621539 100.68863630963942 100.85349548393664 101.01844251264369 101.1834774894467 101.34860050818176 101.51381166283524 101.67911104754408 101.84449875659625 102.00997488443073 102.17553952563813 102.34119277496093 102.50693472729385 102.67276547768414 102.83868512133184 103.00469375359016 103.17079146996581 103.33697836611941 103.50325453786576 103.66962008117407 103.83607509216839 104.00261966712793 104.16925390248748 104.33597789483764 104.50279174092512 104.66969553765314 104.83668938208176 105.00377337142828 105.17094760306755 105.33821217453217 105.50556718351301 105.67301272785943 105.84054890557977 106.00817581484151 106.17589355397182 106.34370222145769 106.51160191594639 106.67959273624589 106.84767478132501 107.01584815031404 107.18411294250481 107.35246925735122 107.52091719446948 107.68945685363863 107.85808833480081 108.02681173806148 108.19562716368992 108.36453471211959 108.53353448394847 108.70262657993945 108.87181110102055 109.04108814828545 109.21045782299369 109.37992022657124 109.54947546061079 109.71912362687192 109.88886482728172 110.05869916393497 110.22862673909475 110.3986476551926 110.56876201482892 110.73896992077331 110.9092714759651 111.07966678351366 111.25015594669857 111.42073906897042 111.59141625395068 111.76218760543246 111.9330532273808 112.10401322393284 112.27506769939863 112.44621675826102 112.61746050517637 112.78879904497475 112.9602324826606 113.13176092341281 113.30338447258526 113.47510323570711 113.64691731848328 113.81882682679485 113.99083186669948 114.16293254443163 114.33512896640306 114.50742123920324 114.67980946959983 114.85229376453891 115.02487423114545 115.19755097672366 115.37032410875749 115.54319373491097 115.71615996302873 115.88922290113612 116.06238265743987 116.23563934032838 116.40899305837227 116.58244392032452 116.75599203512124 116.92963751188171 117.10338045990899 117.27722098869043 117.45115920789777 117.62519522738799 117.79932915720325 117.97356110757165 118.14789118890745 118.32231951181173 118.49684618707258 118.67147132566558 118.84619503875426 119.02101743769046 119.19593863401491 119.37095873945754 119.5460778659378 119.72129612556533 119.89661363064018 120.07203049365339 120.24754682728744 120.42316274441644 120.59887835810686 120.77469378161771 120.95060912840127 121.12662451210336 121.30274004656367 121.47895584581636 121.65527202409045 121.83168869581037 122.0082059755963 122.18482397826452 122.36154281882807 122.53836261249698 122.71528347467907 122.89230552097989 123.06942886720368 123.24665362935347 123.42397992363168 123.60140786644062 123.77893757438282 123.95656916426168 124.13430275308164 124.31213845804892 124.49007639657182 124.66811668626133 124.84625944493148 125.02450479059976 125.20285284148777 125.38130371602145 125.55985753283181 125.73851441075533 125.91727446883421 126.09613782631715 126.27510460265957 126.45417491752441 126.63334889078233 126.81262664251221 126.99200829300179 127.17149396274796 127.35108377245747 127.5307778430473 127.71057629564508 127.89047925158965 128.0704868324315 128.25059915993353 128.43081635607101 128.61113854303269 128.79156584322081 128.97209837925178 129.15273627395689 129.33347965038229 129.51432863179014 129.69528334165855 129.87634390368243 130.05751044177379 130.23878308006246 130.42016194289656 130.60164715484268 130.78323884068686 130.96493712543477 131.14674213431249 131.32865399276685 131.51067282646588 131.69279876129957 131.87503192338019 132.05737243904289 132.23982043484637 132.42237603757306 132.60503937422996 132.78781057204893 132.97068975848754 133.15367706122936 133.33677260818448 133.51997652749014 133.70328894751123 133.88670999684092 134.07023980430105 134.25387849894281 134.43762621004717 134.62148306712541 134.80544919991996 134.98952473840447 135.17370981278484 135.35800455349934 135.54240909121955 135.72692355685055 135.91154808153186 136.09628279663778 136.28112783377787 136.46608332479767 136.65114940177915 136.83632619704147 137.02161384314141 137.20701247287383 137.39252221927239 137.57814321561011 137.76387559539995 137.94971949239545 138.13567504059097 138.32174237422274 138.50792162776906 138.69421293595116 138.88061643373371 139.06713225632521 139.25376053917881 139.44050141799281 139.62735502871129 139.81432150752477 140.00140099087048 140.18859361543338 140.37589951814647 140.56331883619163 140.7508517069999 140.93849826825243 141.12625865788084 141.31413301406789 141.50212147524826 141.6902241801088 141.87844126758955 142.06677287688413 142.2552191474403 142.44378021896068 142.63245623140347 142.82124732498298 143.01015364017016 143.19917531769326 143.38831249853857 143.57756532395103 143.76693393543491 143.95641847475409 144.1460190839332 144.33573590525785 144.52556908127562 144.71551875479648 144.90558506889334 145.09576816690304 145.2860681924266 145.47648528933018 145.66701960174575 145.85767127407135 146.04844045097215 146.23932727738094 146.43033189849891 146.62145445979601 146.81269510701213 147.0040539861572 147.19553124351219 147.38712702562989 147.57884147933515 147.77067475172598 147.96262699017399 148.15469834232519 148.34688895610049 148.53919897969669 148.73162856158694 148.92417785052149 149.11684699552819 149.30963614591354 149.50254545126319 149.69557506144267 149.88872512659796 150.0819957971564 150.27538722382715 150.27622869433594 150.46974155435831 150.66337547341894 150.85713060307839 151.05100709518217 151.24500510186118 151.4391247755326 151.63336626890057 151.82772973495679 152.02221532698155 152.21682319854403 152.41155350350348 152.60640639600956 152.80138203050328 152.99648056171765 153.19170214467857 153.38704693470544 153.58251508741182 153.77810675870634 153.97382210479327 154.16966128217359 154.36562444764542 154.5617117583048 154.75792337154658 154.95425944506516 155.1507201368552 155.34730560521245 155.54401600873436 155.74085150632098 155.93781225717569 156.13489842080605 156.33211015702452 156.52944762594913 156.72691098800442 156.924500403922 157.12221603474183 157.32005804181239 157.51802658679188 157.71612183164876 157.91434393866277 158.11269307042571 158.31116938984187 158.50977306012948 158.70850424482089 158.90736310776367 159.10634981312157 159.30546452537496 159.50470740932195 159.7040786300791 159.90357835308217 160.10320674408703 160.30296396917052 160.50285019473125 160.70286558749038 160.90301031449243 161.10328454310616 161.30368844102557 161.50422217627056 161.70488591718768 161.9056798324512 162.10660409106382 162.3076588623577 162.50884431599505 162.71016062196927 162.91160795060543 163.11318647256155 163.31489635882934 163.51673778073499 163.71871090993997 163.92081591844209 164.12305297857614 164.32542226301535 164.52792394477137 164.73055819719602 164.93332519398155 165.13622510916184 165.33925811711342 165.54242439255594 165.74572411055354 165.94915744651544 166.15272457619687 166.35642567570017 166.56026092147559 166.76423049032226 166.96833455938892 167.17257330617502 167.37694690853169 167.5814555446625 167.78609939312466 167.99087863282955 168.19579344304395 168.40084400339092 168.60603049385082 168.81135309476218 169.01681198682257 169.22240735108966 169.4281393689821 169.63400822228058 169.8400140931289 170.04615716403453 170.25243761786993 170.45885563787343 170.66541140765028 170.87210511117345 171.07893693278481 171.28590705719589 171.49301566948904 171.70026295511855 171.90764909991128 172.11517429006798 172.3228387121641 172.53064255315093 172.73858600035646 172.9466692414866 173.1548924646261 173.36325585823943 173.57175961117196 173.78040391265088 173.98918895228653 174.19811492007307 174.40718200638963 174.6163904020014 174.82574029806051 175.03523188610751 175.24486535807193 175.45464090627362 175.6645587234236 175.87461900262525 176.08482193737555 176.29516772156586 176.50565654948306 176.71628861581073 176.92706411563006 177.13798324442121 177.34904619806417 177.56025317283988 177.77160436543133 177.98309997292472 178.1947401928106 178.40652522298475 178.61845526174966 178.83053050781527 179.04275116030027 179.25511741873314 179.46762948305349 179.680287553613 179.89309183117652 180.10604251692331 180.31913981244801 180.53238391976214 180.74577504129505 180.95931337989487 181.17299913882988 181.38683252178964 181.60081373288625 181.81494297665552 182.02922045805775 182.24364638247937 182.45822095573396 182.67294438406347 182.88781687413933 183.10283863306364 183.31800986837044 183.53333078802689 183.74880160043449 183.96442251443031 184.18019373928811 184.39611548471956 184.61218796087553 184.82841137834745 185.04478594816823 185.26131188181375 185.47798939120401 185.69481868870429 185.91179998712661 186.12893349973075 186.34621944022572 186.56365802277082 186.78124946197704 186.99899397290824 187.2168917710826 187.4349430724738 187.6531480935121 187.87150705108596 188.09002016254306 188.30868764569186 188.52750971880283 188.74648660060947 188.96561851031001 189.18490566756839 189.40434829251595 189.62394660575262 189.84370082834795 190.06361118184279 190.28367788825051 190.50390117005838 190.72428125022904 190.94481835220148 191.16551269989276 191.38636451769909 191.60737403049774 191.82854146364755 192.04986704299122 192.27135099485596 192.49299354605529 192.71479492389042 192.93675535615125 193.15887507111856 193.38115429756454 193.60359326475472 193.82619220244922 194.04895134090438 194.27187091087396 194.49495114361056 194.71819227086723 194.94159452489879 195.16515813846334 195.38888334482371 195.61277037774897 195.83681947151567 196.06103086090951 196.28540478122687 196.50994146827628 196.73464115837959 196.95950408837379 197.18453049561245 197.40972061796717 197.63507469382927 197.8605929621109 198.08627566224689 198.31212303419608 198.53813531844332 198.76431275600021 1