<?xml version="1.0"?><VTKFile type="PolyData" version="0.1" byte_order="LittleEndian">
    <PolyData>
        <Piece NumberOfLines="17" NumberOfPoints="227">
            <PointData Scalars="Pointdata">
                <DataArray type="Float32" Name="time" NumberOfComponents="1" format="ascii">0 1.2287664758760788 2.7757411316886778 4.8655812972979726 8.099560301694094 15.616138112666302 41.446531673892814 1.800627554702029 2.967698185845193 4.2632642850361728 5.7191619886495859 7.3807543681551415 9.3158791944746184 11.632689326705922 14.519687165761079 18.352439881991145 24.070643045642289 35.622632025558183 80.000000000000597 5.9595106380617011 7.1265812692048645 8.4221473683958443 9.8780450720092574 11.539637451514814 13.474762277834291 15.791572410065594 18.678570249120753 22.511322965350818 28.229526129001961 39.781515108917851 80.000000000000071 41.446531673892814 42.613602305035975 43.909168404226961 45.36506610784037 47.026658487345927 48.961783313665407 51.278593445896703 54.165591284951866 57.998344001181934 63.716547164833074 75.268536144748964 79.999999999999972 0 0.12542420922950787 0.25170456303190408 0.3788528298555025 0.50688102248011613 0.63580140482784375 0.76562649901280577 0.89636909264001474 1.0280422463639991 1.1606593017183322 1.2942338892278413 1.4287799368158181 1.5643116785191677 1.7008436635251838 1.8383907655442691 1.9769681925336833 2.116591496788268 2.257276585414826 2.3990397312078535 2.5418975839451949 2.6858671821232099 2.8309659651521901 2.9772117860337866 3.1246229245435573 3.2732181009429469 3.4230164902464035 3.5740377370708818 3.7263019710964191 3.8798298231682788 4.0346424420728351 4.1907615120213313 4.3482092708776392 4.5070085291683828 4.6671826899160038 4.8287557693379624 4.9917524184578292 5.1561979456768787 5.3221183403579468 5.48954029747643 5.658491243396969 5.828999362838065 6.0010936270908628 6.1748038235628862 6.3501605867219473 6.5271954305207363 6.7059407823878665 6.8864300188771121 7.0686975030728281 7.2527786238564387 7.4387098371462166 7.6265287092305476 7.8162739623235442 8.0079855224811567 8.2017045700261235 8.3974735926410577 8.5953364413008924 8.795338389228883 8.9975261940744016 9.2019481635262252 9.4086542245915421 9.6176959967893119 9.8291268695263287 10.043002083946234 10.259378819565274 10.478316286034827 10.699875820399068 10.924120990247445 11.151117703196009 11.380934323169317 11.613641793996232 11.849313770878684 12.088026760342975 12.329860269339006 12.574896964214386 12.823222840358987 13.074927403390893 13.330103862839104 13.588849339371794 13.851265086722986 14.117456729586831 14.387534518878155 14.661613605903254 14.939814337147256 15.222262571566842 15.5090900224822 15.800434626392775 16.096440941301932 16.397260577429869 16.70305266352727 17.013984352380319 17.330231369527372 17.651978609696954 17.979420786035867 18.312763137835418 18.652222203197052 18.998026663921873 19.350418270879725 19.709652859236101 20.076001464215427 20.449751549589539 20.831208362840144 21.220696433000047 21.618561229587868 22.025171003885212 22.440918837148303 22.866224924305222 23.301539126393813 23.747343830606436 24.204157163528304 24.672536611237675 25.153083109697988 25.646445680717974 26.153326703198097 26.674487927081973 27.210757359237146 27.763037177506241 28.332312862841185 28.919663781660923 29.52627550388625 30.153454209886359 30.802643626394861 31.475445043556036 32.173641111238716 32.89922430457441 33.654431203199131 34.441784069946863 35.264141677507283 36.124761966752807 37.027380003887302 37.976305950056975 38.976549543557084 40.033980199596122 41.155535703200172 42.349498344245255 43.625866466753841 44.996863951597703 46.477654043558132 48.08736451786627 49.850602844246289 51.799772383916057 53.978758543559159 56.44908930711285 59.300876883917098 62.673825684605276 66.801981383918189 72.124099724276093 79.625204224277184 80 3.9106888795311709 10.842160685130624 72.988241669352519 5.5232072767406661 12.454679082340119 74.600760066562017 7.2898156732638908 14.221287478863344 76.367368463085242 9.2431050214352801 16.174576827034734 78.320657811256638 11.427242232204515 18.358714037803967 79.999999999998579 13.904197883922086 20.835669689521538 80.000000000000199 16.764822336939286 23.69629414253874 80.000000000000711 20.150149860069895 27.081621665669349 79.999999999999972 24.296889187263876 31.22836099286333 80.000000000000099 29.650021784675985 36.581493590275436 79.999999999999858 37.213311217177079 44.144783022776529 79.999999999999915 50.224352929620402 57.155824735219852 80.000000000000014 </DataArray>
            </PointData>
            <CellData Scalars="CellData">
                <DataArray type="Float32" Name="organtype" NumberOfComponents="1" format="ascii">2 2 2 2 4 8 8 8 8 8 8 8 8 8 8 8 8 </DataArray>
                <DataArray type="Float32" Name="id" NumberOfComponents="1" format="ascii">1 4 6 8 2 9 11 13 15 17 19 21 23 25 27 29 31 </DataArray>
                <DataArray type="Float32" Name="emergencetime" NumberOfComponents="1" format="ascii">1.2287664758760788 2.967698185845193 7.1265812692048645 42.613602305035975 0.12542420922950787 10.842160685130624 12.454679082340119 14.221287478863344 16.174576827034734 18.358714037803967 20.835669689521538 23.69629414253874 27.081621665669349 31.22836099286333 36.581493590275436 44.144783022776529 57.155824735219852 </DataArray>
                <DataArray type="Float32" Name="creationtime" NumberOfComponents="1" format="ascii">0 1.800627554702029 5.9595106380617011 41.446531673892814 0 3.9106888795311709 5.5232072767406661 7.2898156732638908 9.2431050214352801 11.427242232204515 13.904197883922086 16.764822336939286 20.150149860069895 24.296889187263876 29.650021784675985 37.213311217177079 50.224352929620402 </DataArray>
                <DataArray type="Float32" Name="age" NumberOfComponents="1" format="ascii">80 78.199372445297968 74.040489361938299 38.553468326107179 80 76.089311120468835 74.476792723259337 72.710184326736112 70.756894978564716 68.572757767795494 66.095802116077905 63.235177663060711 59.849850139930112 55.703110812736121 50.349978215324015 42.786688782822921 29.775647070379598 </DataArray>
                <DataArray type="Float32" Name="subtype" NumberOfComponents="1" format="ascii">1 3 3 3 1 2 2 2 2 2 2 2 2 2 2 2 2 </DataArray>
                <DataArray type="Float32" Name="order" NumberOfComponents="1" format="ascii">1 2 2 2 1 2 2 2 2 2 2 2 2 2 2 2 2 </DataArray>
                <DataArray type="Float32" Name="radius" NumberOfComponents="1" format="ascii">0.20000000000000001 0.20000000000000001 0.20000000000000001 0.20000000000000001 0.5 0.02 0.02 0.02 0.02 0.02 0.02 0.02 0.02 0.02 0.02 0.02 0.02 </DataArray>
            </CellData>
            <Points>
                <DataArray type="Float32" Name="Coordinates" NumberOfComponents="3" format="ascii">0 0 -3 0.13212063916796007 0.39479342978169063 -7.9826380848409073 0.82615406924460899 1.0478661611830973 -12.890979312326619 -0.28991178524996974 0.93993608350682256 -17.763632399379308 -0.93096669657197018 1.4830779931532159 -22.692531410989872 -1.4878748731310414 2.0348558557753642 -27.630688402540645 -1.9563068683086156 1.578999328955804 -29.520818392331989 0.13212063916796007 0.39479342978169063 -7.9826380848409073 -2.2298959843434698 3.3414409824121591 -11.259549080097345 -4.4449962644778953 6.0695643729750888 -14.816327610567273 -6.6071714058464934 8.7260867547774641 -18.458838762647758 -8.7801717366799501 11.378035561087881 -22.098239412604624 -10.452470618124366 13.719349724005529 -26.187452593846338 -11.952227699840989 16.053191406498584 -30.347249667851131 -13.563163639197889 18.282648646998801 -34.522702435165051 -15.100415458061848 20.613747496850053 -38.670332481061337 -16.564297569353151 23.01198396616963 -42.806213403122186 -17.74291163801972 25.444847069832917 -47.012404791537016 -18.330991593822777 26.822598935377748 -49.531323384357563 -0.28991178524996974 0.93993608350682256 -17.763632399379308 1.9560035640760771 -0.94278846892168156 -21.81470787428033 4.3656930572080164 -2.5283535484840245 -25.898747531918588 6.4785061632207235 -4.3079212032591769 -30.066379922273931 8.6569776919562553 -6.0974379957766534 -34.19577351550123 10.614838528696726 -7.7216451465055274 -38.500274889119211 12.682265496909309 -9.1334199886894361 -42.828396597907442 14.487913938787717 -10.609249731137879 -47.251241867148345 15.641233589031891 -11.769741458408449 -51.975976011552369 16.73347091883058 -13.054579939600435 -56.683014113442184 17.069736133526323 -14.340530175458836 -61.503103085264314 16.923192263855508 -14.927970066705068 -64.340578026245012 -1.4878748731310414 2.0348558557753642 -27.630688402540645 0.96555887071190094 3.1966306781602754 -31.829609945823552 2.9246335965920722 3.8656931659209053 -36.380915429516016 4.858083712438912 4.5999679315930928 -40.933124917009849 6.3044858885159698 5.7519966982899478 -45.578633550705675 7.4727755785016985 6.775087098358588 -50.331357531073188 8.865499751207361 7.9655740660442387 -54.983567775519582 10.268820291188042 8.4478845211496001 -59.758300028428053 11.77840708333088 8.5473546123442645 -64.523932559157387 12.701812323864054 8.2087380434558366 -69.426244420007336 13.17254945822677 8.3627754446577924 -74.401651843461508 13.296237264779636 8.4196438027434244 -75.384783188731035 0 0 -3 0 0 2 0 0 7 0 0 12 0 0 17 0 0 22 0 0 27 0 0 32 0 0 37 0 0 42 0 0 47 0 0 52 0 0 57 0 0 62 0 0 67 0 0 72 0 0 77 0 0 82 0 0 87 0 0 92 0 0 97 0 0 102 0 0 107 0 0 112 0 0 117 0 0 122 0 0 127 0 0 132 0 0 137 0 0 142 0 0 147 0 0 152 0 0 157 0 0 162 0 0 167 0 0 172 0 0 177 0 0 182 0 0 187 0 0 192 0 0 197 0 0 202 0 0 207 0 0 212 0 0 217 0 0 222 0 0 227 0 0 232 0 0 237 0 0 242 0 0 247 0 0 252 0 0 257 0 0 262 0 0 267 0 0 272 0 0 277 0 0 282 0 0 287 0 0 292 0 0 297 0 0 302 0 0 307 0 0 312 0 0 317 0 0 322 0 0 327 0 0 332 0 0 337 0 0 342 0 0 347 0 0 352 0 0 357 0 0 362 0 0 367 0 0 372 0 0 377 0 0 382 0 0 387 0 0 392 0 0 397 0 0 402 0 0 407 0 0 412 0 0 417 0 0 422 0 0 427 0 0 432 0 0 437 0 0 442 0 0 447 0 0 452 0 0 457 0 0 462 0 0 467 0 0 472 0 0 477 0 0 482 0 0 487 0 0 492 0 0 497 0 0 502 0 0 507 0 0 512 0 0 517 0 0 522 0 0 527 0 0 532 0 0 537 0 0 542 0 0 547 0 0 552 0 0 557 0 0 562 0 0 567 0 0 572 0 0 577 0 0 582 0 0 587 0 0 592 0 0 597 0 0 602 0 0 607 0 0 612 0 0 617 0 0 622 0 0 627 0 0 632 0 0 637 0 0 642 0 0 647 0 0 652 0 0 657 0 0 662 0 0 667 0 0 672 0 0 677 0 0 682 0 0 687 0 0 692 0 0 697 0 0 702 0 0 707 0 0 712 0 0 717 0 0 722 0 0 727 0 0 727.20055391761093 0 0 137 -5 -5.5879794918041429e-13 137 -9.9950399825447747 -1.1170415688444528e-12 137 0 0 187 5 -6.3539268009247046e-14 187 9.9941720745319671 -1.2700447559484383e-13 187 0 0 237 -5 6.8587648519890833e-13 237 -9.9930459658855604 1.3707990487025436e-12 237 0 0 287 5 -1.3082137023885697e-12 287 9.9915459055515949 -2.6142154523374015e-12 287 0 0 337 -5 -3.4318583485408953e-13 337 -9.9894822469594295 -6.8564976093657561e-13 337 0 0 387 5 -2.7915138233557183e-13 387 9.9865260234739797 -5.5755050883658456e-13 387 0 0 437 -5 9.0148859952523309e-13 437 -9.9820637715057376 1.7997433379492549e-12 437 0 0 487 5 -1.5238258167148944e-12 487 9.974837485732424 -3.039982975658911e-12 487 0 0 537 -5 -1.2757372052776478e-13 537 -9.9619070475216009 -2.5417550912081823e-13 537 0 0 587 5 -4.9476349666189649e-13 587 9.9349378770966936 -9.8308892063821583e-13 587 0 0 637 -5 1.117100713851558e-12 637 -9.8613889937614001 2.2032329368997514e-12 637 0 0 687 5 5.3429882339110138e-13 687 9.4908331996462199 1.0141882023144355e-12 687 </DataArray>
            </Points>
            <Lines>
                <DataArray type="Float32" Name="connectivity" NumberOfComponents="1" format="ascii">0 1 2 3 4 5 6 7 8 9 10 11 12 13 14 15 16 17 18 19 20 21 22 23 24 25 26 27 28 29 30 31 32 33 34 35 36 37 38 39 40 41 42 43 44 45 46 47 48 49 50 51 52 53 54 55 56 57 58 59 60 61 62 63 64 65 66 67 68 69 70 71 72 73 74 75 76 77 78 79 80 81 82 83 84 85 86 87 88 89 90 91 92 93 94 95 96 97 98 99 100 101 102 103 104 105 106 107 108 109 110 111 112 113 114 115 116 117 118 119 120 121 122 123 124 125 126 127 128 129 130 131 132 133 134 135 136 137 138 139 140 141 142 143 144 145 146 147 148 149 150 151 152 153 154 155 156 157 158 159 160 161 162 163 164 165 166 167 168 169 170 171 172 173 174 175 176 177 178 179 180 181 182 183 184 185 186 187 188 189 190 191 192 193 194 195 196 197 198 199 200 201 202 203 204 205 206 207 208 209 210 211 212 213 214 215 216 217 218 219 220 221 222 223 224 225 226 </DataArray>
                <DataArray type="Float32" Name="offsets" NumberOfComponents="1" format="ascii">7 19 31 43 191 194 197 200 203 206 209 212 215 218 221 224 227 </DataArray>
            </Lines>
        </Piece>
    </PolyData>
</VTKFile>
