<?xml version="1.0"?><VTKFile type="PolyData" version="0.1" byte_order="LittleEndian">
<PolyData>
<Piece NumberOfLines="50" NumberOfPoints="52">
<CellData Scalars=" CellData">
<DataArray type="Float32" Name="pressure" NumberOfComponents="1" format="ascii" >
-699.874 -699.898 -699.923 -699.947 -699.971 -699.996 -700.02 -700.044 -700.068 -700.092 -700.117 -700.141 -699.964 -699.974 -699.984 -699.989 -699.99 -700.19 -700.165 -700.141 -700.116 -700.092 -700.067 -700.043 -700.018 -699.994 -699.969 -699.945 -699.921 -700.093 -700.082 -700.092 -700.068 -700.044 -700.02 -699.995 -699.981 -699.957 -699.923 -699.906 -699.891 -699.869 -699.845 -699.829 -699.968 -699.956 -699.891 -699.881 -699.813 -699.801 
</DataArray>
<DataArray type="Float32" Name="axial_flux" NumberOfComponents="1" format="ascii" >
9.80598e-13 9.78559e-13 9.72447e-13 9.67042e-13 9.75559e-13 9.71218e-13 9.72076e-13 9.65699e-13 9.63273e-13 9.71656e-13 9.76438e-13 9.48904e-13 4.1162e-13 4.10666e-13 3.14798e-13 1.17328e-13 1.6951e-13 -9.80575e-13 -9.80436e-13 -9.80315e-13 -9.80214e-13 -9.80654e-13 -9.80591e-13 -9.80548e-13 -9.80523e-13 -9.80519e-13 -9.80533e-13 -9.80567e-13 -9.80619e-13 -8.60643e-13 -8.60604e-13 -9.69003e-13 -9.6894e-13 -9.68896e-13 -9.68871e-13 -9.68866e-13 -9.68869e-13 -9.68928e-13 -9.6899e-13 -9.69035e-13 -9.69174e-13 -9.69259e-13 -9.69371e-13 -9.69455e-13 -9.16672e-13 -9.16686e-13 -7.85141e-13 -7.85186e-13 -9.16601e-13 -9.1668e-13 
</DataArray>
<DataArray type="Float32" Name="radial_flux" NumberOfComponents="1" format="ascii" >
7.1114e-16 5.73091e-16 4.35629e-16 2.98986e-16 1.62135e-16 2.49981e-17 -1.11893e-16 -2.48398e-16 -3.84287e-16 -5.20603e-16 -6.57857e-16 -7.8557e-16 1.40046e-17 9.98374e-18 6.43643e-18 4.3235e-18 1.25394e-19 -1.19378e-15 -1.03979e-15 -8.85836e-16 -7.31917e-16 -5.77945e-16 -4.23913e-16 -2.69898e-16 -1.15894e-16 3.81054e-17 1.92107e-16 3.46115e-16 4.93831e-16 -6.44032e-17 -4.18429e-18 -8.68365e-16 -6.40213e-16 -4.12087e-16 -1.83977e-16 4.41258e-17 2.763e-17 7.44977e-16 7.28514e-16 3.55292e-16 8.20132e-16 1.23061e-15 1.45892e-15 5.591e-16 1.69502e-17 1.57644e-18 7.13511e-17 3.82446e-18 9.73996e-17 8.58804e-18 
</DataArray>
<DataArray type="Float32" Name="net_flux" NumberOfComponents="1" format="ascii" >
9.8131e-13 9.79132e-13 9.72882e-13 9.67341e-13 9.75721e-13 9.71243e-13 9.71964e-13 9.65451e-13 9.62889e-13 9.71135e-13 9.75781e-13 9.48119e-13 4.11634e-13 4.10676e-13 3.14805e-13 1.17333e-13 1.69511e-13 -9.81769e-13 -9.81476e-13 -9.81201e-13 -9.80946e-13 -9.81232e-13 -9.81015e-13 -9.80817e-13 -9.80639e-13 -9.80481e-13 -9.80341e-13 -9.80221e-13 -9.80125e-13 -8.60707e-13 -8.60608e-13 -9.69871e-13 -9.6958e-13 -9.69308e-13 -9.69055e-13 -9.68821e-13 -9.68841e-13 -9.68183e-13 -9.68261e-13 -9.68679e-13 -9.68354e-13 -9.68029e-13 -9.67912e-13 -9.68896e-13 -9.16655e-13 -9.16684e-13 -7.8507e-13 -7.85182e-13 -9.16503e-13 -9.16672e-13 
</DataArray>

</CellData>
<Points>
<DataArray type="Float32" Name="Coordinates" NumberOfComponents="3" format="ascii" >
0 0 -3 0.000417859 -0.000303358 -3.25 -0.00843366 -0.0133496 -3.4995 -0.00859206 -0.0452053 -3.74746 -0.0182826 -0.085154 -3.99406 -0.00431294 -0.105307 -4.24286 0.0246259 -0.12296 -4.49055 0.0499771 -0.142927 -4.73846 0.0891976 -0.160526 -4.98473 0.133779 -0.173576 -5.23038 0.166832 -0.169257 -5.47815 0.189438 -0.167029 -5.72711 0.148408 -0.214121 -5.9668 -0.171133 0.0825605 -4.09898 -0.324169 0.250255 -4.20367 -0.531923 0.363826 -4.28392 -0.768451 0.439058 -4.31382 -0.776212 0.441989 -4.31528 0 0 -3 0 0 -2.75 0 0 -2.5 0 0 -2.25 0 0 -2 0 0 -1.75 0 0 -1.5 0 0 -1.25 0 0 -1 0 0 -0.75 0 0 -0.5 0 0 -0.25 0 0 -0.00273565 7.33909e-18 -0.119856 -1.7806 7.88317e-18 -0.128742 -1.76434 -0.0130383 -0.0350105 -1.75281 -0.0260767 -0.070021 -1.50561 -0.039115 -0.105032 -1.25842 -0.0521534 -0.140042 -1.01123 -0.0651917 -0.175053 -0.764036 -0.0672377 -0.180547 -0.725246 -0.0912684 -0.245074 -0.269651 -0.104307 -0.280084 -0.0224578 -0.109522 -0.294088 0.0764193 -0.119953 -0.322097 0.274173 -0.132991 -0.357107 0.521366 -0.146029 -0.392118 0.768559 -0.15055 -0.404256 0.854258 -0.0795641 -0.0925959 -0.491552 -0.0803938 -0.0866758 -0.475822 -0.12008 -0.443488 0.27659 -0.120597 -0.450805 0.286392 -0.162876 -0.316305 1.08795 -0.163895 -0.309033 1.10727 
</DataArray>
</Points>
<Lines>
<DataArray type="Int32" Name="connectivity" NumberOfComponents="1" format="ascii" >
0 1 1 2 2 3 3 4 4 5 5 6 6 7 7 8 8 9 9 10 10 11 11 12 4 13 13 14 14 15 15 16 16 17 18 19 19 20 20 21 21 22 22 23 23 24 24 25 25 26 26 27 27 28 28 29 29 30 22 31 31 32 22 33 33 34 34 35 35 36 36 37 37 38 38 39 39 40 40 41 41 42 42 43 43 44 44 45 38 46 46 47 41 48 48 49 45 50 50 51 
</DataArray>
<DataArray type="Int32" Name="offsets" NumberOfComponents="1" format="ascii" >
2 4 6 8 10 12 14 16 18 20 22 24 26 28 30 32 34 36 38 40 42 44 46 48 50 52 54 56 58 60 62 64 66 68 70 72 74 76 78 80 82 84 86 88 90 92 94 96 98 100 
</DataArray>

</Lines>
</Piece>
</PolyData>
</VTKFile>
