<?xml version="1.0"?><VTKFile type="PolyData" version="0.1" byte_order="LittleEndian">
    <PolyData>
        <Piece NumberOfLines="6" NumberOfPoints="59">
            <PointData Scalars="Pointdata">
                <DataArray type="Float32" Name="time" NumberOfComponents="1" format="ascii">0 0.060655528403882726 0.12709614247426337 0.2005428338292648 0.28264924924207629 0.3757338257465036 0.48319208307134121 0.61028822554560469 0.76584133231341744 0.96638416614268241 1.2490334153847589 1.7322254984560996 4.8153880679455092 4.8153880679455092 5.5653509852577123 6.4421268444404074 7.4975068106484883 8.8233669663549854 10.607960405456691 13.347951486610084 19.508125803913579 40.706183682417873 0 0.02661785818422022 0.057106080251564786 0.085147672702714505 0.12645683449438591 0.17793255068131275 0.23070858062030303 0.32349345859890122 0.49378880400433017 1.4506286085862488 0.085147672702714505 0.2631895295354113 0.46872376930508902 0.71181917836369524 1.0093439134493081 1.3929200100516828 1.9335401541959019 2.8577363949424952 9.2954880446788941 0.23070858062030303 0.40875043745299988 0.61428467722267754 0.8573800862812837 1.1549048213668967 1.5384809179692713 2.0791010621134904 3.0032973028600836 9.4410489525964838 1.4506286085862488 1.6286704654189457 1.8342047051886232 2.0773001142472296 2.3748248493328425 2.7584009459352172 3.2990210900794361 4.2232173308260297 10.660968980562428 </DataArray>
            </PointData>
            <CellData Scalars="CellData">
                <DataArray type="Float32" Name="organtype" NumberOfComponents="1" format="ascii">2 2 4 8 8 8 </DataArray>
                <DataArray type="Float32" Name="id" NumberOfComponents="1" format="ascii">1 4 2 5 7 9 </DataArray>
                <DataArray type="Float32" Name="emergencetime" NumberOfComponents="1" format="ascii">0.060655528403882726 5.5653509852577123 0.02661785818422022 0.2631895295354113 0.40875043745299988 1.6286704654189457 </DataArray>
                <DataArray type="Float32" Name="creationtime" NumberOfComponents="1" format="ascii">0 4.8153880679455092 0 0.085147672702714505 0.23070858062030303 1.4506286085862488 </DataArray>
                <DataArray type="Float32" Name="age" NumberOfComponents="1" format="ascii">90 85.184611932054494 90 89.914852327297282 89.769291419379698 88.549371391413757 </DataArray>
                <DataArray type="Float32" Name="subtype" NumberOfComponents="1" format="ascii">1 2 1 2 2 2 </DataArray>
                <DataArray type="Float32" Name="order" NumberOfComponents="1" format="ascii">1 2 1 2 2 2 </DataArray>
                <DataArray type="Float32" Name="radius" NumberOfComponents="1" format="ascii">0.20000000000000001 0.012500000000000001 0.20000000000000001 0.02 0.02 0.02 </DataArray>
            </CellData>
            <Points>
                <DataArray type="Float32" Name="Coordinates" NumberOfComponents="3" format="ascii">0 0 -3 0.013165346980263929 -0.039223716612579285 -3.2465525779503945 0.012730397782627649 -0.092413972754821661 -3.490828257195624 -0.012995983583553203 -0.069241533347514914 -3.7384190311629033 -0.037215941332688601 -0.046232845315022641 -3.9861769652874304 -0.038455496150007665 0.013545380255572816 -4.2289217432981756 -0.038403011782992061 0.095784301091812046 -4.4650080773903502 -0.096714953155888933 0.2252833095370386 -4.6707499649704607 -0.13006335668760127 0.35055663472287896 -4.8845126323817016 -0.16832994821528666 0.47601994394984737 -5.0973379739429721 -0.19985601925135321 0.605032821454773 -5.3091439801914442 -0.24117875821041873 0.7186092989956574 -5.5279882512938103 -0.2231062138924772 0.85658999279962367 -5.7356772285633131 -0.037215941332688601 -0.046232845315022641 -3.9861769652874304 -0.11780004040163329 -0.26192521102664523 -4.0835576941354432 -0.21716816239866144 -0.47431645899342145 -4.170252181375977 -0.29724555319054219 -0.69507908150390829 -4.2559929300679302 -0.37926856228548333 -0.90861969551545907 -4.3568523973805284 -0.47486254344345324 -1.1210645929703889 -4.4475659923469619 -0.57141687936309959 -1.333610496078333 -4.5370170923242368 -0.63573502061688825 -1.5391146193363627 -4.6640258795383751 -0.66709904798672015 -1.6367016196624893 -4.703938836534256 0 0 -3 0 0 -2.75 0 0 -2.5 0 0 -2.2999999999999998 0 0 -2.0499999999999998 0 0 -1.7999999999999998 0 0 -1.5999999999999999 0 0 -1.3499999999999999 0 0 -1.0999999999999999 0 0 -0.90000000000000013 0 0 -2.2999999999999998 -0.20225424859373686 4.0430021684735987e-14 -2.1530536869268815 -0.40450849718747373 8.0860043369471973e-14 -2.0061073738537631 -0.60676274578121059 1.2129006505420796e-13 -1.859161060780645 -0.80901699437494745 1.6172008673894395e-13 -1.7122147477075267 -1.0112712429686843 2.0215010842367993e-13 -1.5652684346344083 -1.2135254915624212 2.4258013010841592e-13 -1.41832212156129 -1.415779740156158 2.8301015179315188e-13 -1.2713758084881717 -1.6180339887498949 3.2344017347788784e-13 -1.1244294954150533 0 0 -1.5999999999999999 0.20225424859373686 -6.5604090931658412e-14 -1.4530536869268815 0.40450849718747373 -1.3120818186331682e-13 -1.3061073738537634 0.60676274578121059 -1.9681227279497524e-13 -1.1591610607806451 0.80901699437494745 -2.6241636372663365e-13 -1.0122147477075267 1.0112712429686843 -3.2802045465829206e-13 -0.86526843463440839 1.2135254915624212 -3.9362454558995047e-13 -0.71832212156129005 1.415779740156158 -4.5922863652160889e-13 -0.57137580848817171 1.6180339887498949 -5.248327274532673e-13 -0.42442949541505337 0 0 -0.90000000000000013 -0.20225424859373686 -1.196423574953345e-15 -0.75305368692688179 -0.40450849718747373 -2.3928471499066899e-15 -0.60610737385376356 -0.60676274578121059 -3.5892707248600347e-15 -0.45916106078064528 -0.80901699437494745 -4.7856942998133791e-15 -0.312214747707527 -1.0112712429686843 -5.9821178747667234e-15 -0.16526843463440866 -1.2135254915624212 -7.1785414497200678e-15 -0.018322121561290317 -1.415779740156158 -8.374965024673413e-15 0.12862419151182802 -1.6180339887498949 -9.5713885996267581e-15 0.27557050458494636 </DataArray>
            </Points>
            <Lines>
                <DataArray type="Float32" Name="connectivity" NumberOfComponents="1" format="ascii">0 1 2 3 4 5 6 7 8 9 10 11 12 13 14 15 16 17 18 19 20 21 22 23 24 25 26 27 28 29 30 31 32 33 34 35 36 37 38 39 40 41 42 43 44 45 46 47 48 49 50 51 52 53 54 55 56 57 58 </DataArray>
                <DataArray type="Float32" Name="offsets" NumberOfComponents="1" format="ascii">13 22 32 41 50 59 </DataArray>
            </Lines>
        </Piece>
    </PolyData>
</VTKFile>
