<?xml version="1.0"?><VTKFile type="PolyData" version="0.1" byte_order="LittleEndian">
    <PolyData>
        <Piece NumberOfLines="2016" NumberOfPoints="6212">
            <PointData Scalars="Pointdata">
                <DataArray type="Float32" Name="time" NumberOfComponents="1" format="ascii">0 0.25355803430472273 0.46170695067491457 0.67481225648369525 0.8931157619449196 1.1168774166834039 1.3463771706727758 1.5819170801132674 1.8238236979851463 2.0724507967434738 2.3281824801177748 2.5914367527140998 2.8626696306972952 3.1423798950590296 3.4311146119121112 3.7294755733070577 4.0381268491440245 4.3578036884326332 4.689323069971759 5.0335962833805334 5.3916440281731406 5.7646146609582241 6.1538064128188887 6.5606946608058658 6.9869656992596951 7.4345589634029166 7.9057203780974428 8.4030705459329997 8.9296930211382559 9.4892502161211958 10.086138017884311 10.725695745524511 11.41449706369286 12.160762463697365 12.974959878638625 13.87070683272362 14.866176266960128 15.986386396398487 17.267138946982517 18.762273004717855 20.55827572910411 22.80753986221821 25.818966379978065 29.999999999999932 0.56762534661558994 0.87935927586252371 1.3293775565093573 1.8904016961390933 2.2564447366025107 2.7106651296047981 3.2586395557858547 3.6174055199264683 4.3351196003948118 4.9945265757078525 5.5527846661262874 6.4054094138556179 7.2423621974279513 8.3534382223273607 9.1686372166716765 10.484717759981194 12.174299231642411 14.5630142271526 17.928601405813996 29.999999999999904 1.5317751127915893 1.5994117080268322 1.8710939486414506 3.2010417591433771 1.6943507842625158 3.330509636543364 3.2010417591433771 4.546943096646352 2.0271056043427298 2.0838056482377989 2.3567504701006774 3.4434764678818497 2.1467022930880075 3.5126742320169559 3.4434764678818497 4.6792413413225269 2.6492952069281808 2.7021288089274926 2.9246476425087766 4.0147730029981714 2.7796554300524257 4.0554473095866932 4.0147730029981714 5.3024580255688667 3.0582745746449609 3.1205653592710316 3.3898192903156263 4.5922655692117988 3.1989662566853725 4.611565709150379 4.5922655692117988 5.8404265725800482 3.5693788728438616 3.6178095387096207 3.8681706777941418 4.880002605690235 3.6768083426742479 5.2050016270776922 4.880002605690235 6.0799184179904131 4.1917421930268208 4.2450069134240538 4.4632229641416981 5.4001169528753241 4.3042394375645143 5.5543476356866615 5.4001169528753241 6.485628511070809 4.6029169179450857 4.6600307614094358 4.9139770821466486 6.1513208346636032 4.7471704622321873 6.1813755885401349 6.1513208346636032 7.5810220744046068 5.4352004118917616 5.496752695764112 5.7754622679238459 7.1080231668136431 5.5888509040686447 6.8958903113691274 7.1080231668136431 8.4840729248376299 6.2126216873034563 6.2640777477112346 6.4955285533042755 7.5673567926917791 6.3360640685935676 8.1860469550160193 7.5673567926917791 8.660944252179867 6.8815991897540529 6.9433503367232383 7.2280278385854668 8.4794913655343347 7.0232585906582692 8.3488146188520851 8.4794913655343329 9.8948551314964419 7.9252803083131473 7.9742494390997374 8.2047914240963067 9.2032122800972367 8.0369863912262023 9.039235296804474 9.2032122800972367 10.511330322624202 8.9799384661171331 9.0362634031043605 9.3036965342247964 10.53402223125757 9.117994268966898 10.69992316613061 10.53402223125757 11.870603052899769 10.436643078221621 10.515107479121186 10.834681093185184 12.273066800610577 10.610144803315681 11.770844156600321 12.273066800610577 13.867397459683772 11.556256319713057 11.612959126607795 11.875725101373398 13.166028870983856 11.704146415785759 13.173644746337095 13.166028870983856 14.99475091132599 13.483021461955293 13.536997667680337 13.777476955947643 14.911104768861318 13.614454075323801 15.148277556024349 14.911104768861318 16.426158774334599 16.26883871503988 16.318791107445872 16.6100971243464 17.902343159547133 16.400363235372247 17.807161242293237 17.902343159547133 19.182815407615639 21.363925145609738 21.424575632510034 21.704409060950265 22.905050809811119 21.499506592464524 23.087885805411325 22.905050809811122 24.261876870373541 0.78329843324818127 1.0860176324573816 1.441643074133752 1.7901882540297946 2.1251650283791421 2.5814044084696599 3.1018498419077192 3.4104273664571121 3.9328953451448512 4.5353123298779501 4.9370185857657569 5.5123116223351589 5.9712503614089547 6.5780864888109853 7.1495989103831867 7.9100935539434065 8.5832098547492901 9.2893057816578288 9.9159519012109456 10.736655995761154 11.711411744538834 12.863769635566301 14.28523502830334 16.021023251037093 17.795736214259513 20.978900029766923 24.484264488803088 29.999999999999996 1.6547209061547179 1.7000853148310384 1.9992064612350946 3.1715056413740426 1.765041378605422 3.2184928071544219 3.1715056413740426 4.4544062347743942 2.0354058602499001 2.0908694837573045 2.3388611456596768 3.3734835654976849 2.1539573798559539 3.6251440287655203 3.3734835654976849 4.6600886873414034 2.4096221788385606 2.4647433083260797 2.7318374708834123 3.9405378707724426 2.5436765136239945 3.8030141801566213 3.9405378707724426 5.2656521074830023 2.7703561335898259 2.8342669795105442 3.1264512861457971 4.4052413934934975 2.9156481974411625 4.2518083484995888 4.4052413934934975 5.9149985666477249 3.2634784376614725 3.3130116421382785 3.574807142685585 4.6885045967472232 3.3810955200256823 4.4803453128426423 4.6885045967472232 6.2665368564406991 3.8286901671167684 3.8879002664461266 4.1600344153893793 5.3798958476250016 3.9672408831700015 5.2488535473935407 5.3798958476250016 6.6777327075141875 4.1652472775308773 4.2228285363431155 4.4886297608305865 5.8093365143927294 4.3171986061010994 5.7820576157781165 5.8093365143927294 7.2362960071044879 4.737685173133622 4.7896743197967435 5.023678827735111 6.1435550651978019 4.8671808570317197 6.3060772606051856 6.1435550651978019 7.3130460636280548 5.4020515544498364 5.4647297284287335 5.7674703271665759 7.1562507785091292 5.5566043700930781 6.8335782419207867 7.1562507785091301 8.5418414124396342 5.8478381878243626 5.8959334762753306 6.1491436632591947 7.2647163137660513 5.9664677564711193 7.2640993213151006 7.2647163137660504 8.8599826201466527 6.4904226202476787 6.5650744773342762 6.8670672666362025 8.2544907700701184 6.6585417746668112 8.3202398574740712 8.2544907700701184 9.7383415787788081 7.0068105783544112 7.0500667228350418 7.2804768453977982 8.454642000726885 7.1349770433863506 8.3603222156030697 8.454642000726885 9.9360876326492527 7.6951720207642893 7.7470581342867479 8.0079363820962755 9.1853722865046876 7.8235134470295948 9.0439532946638543 9.1853722865046876 10.289766405364146 8.3497470655583701 8.4012088467988448 8.6859465220521255 9.7344987225791737 8.4566505729600596 9.7564716939422791 9.7344987225791737 10.995214245297324 9.2311953383443885 9.2833394619135525 9.5462335586998766 10.639031969719268 9.348961582724213 10.475715897137176 10.639031969719269 12.135261961918543 10.022381750322468 10.072070490544032 10.316479518032256 11.43291064807922 10.14552032618381 11.464093082166897 11.432910648079222 12.992361563966845 10.864775238430299 10.917475732124958 11.165487587640245 12.364976502666371 11.000972460639554 12.476718254823121 12.364976502666371 14.033201331423465 11.624276644967384 11.678976349980903 11.927438376173427 13.009060493042996 11.747509095217382 13.142241497142312 13.009060493042996 14.287420291967894 12.638056103962091 12.701960596615987 13.034509511626752 14.29094480669125 12.770519121602975 14.111785047711408 14.29094480669125 15.491008693288771 13.874479836327593 13.915439393759785 14.118728231126205 15.100796122391435 13.983432716710016 15.461992574618748 15.100796122391436 16.206357785371797 15.390375417350402 15.450438127199194 15.75701646386967 17.177855623738495 15.544891019512347 17.013788622899462 17.177855623738495 18.733438952509719 17.362098355114469 17.428865693843075 17.744861451330763 19.153170964135413 17.519723958069534 18.830996877973831 19.153170964135413 20.213169422771522 19.977238892905497 20.043617519688009 20.314707619928583 21.444275457966317 20.113095176492774 21.572100848450685 21.44427545796632 22.860142538381741 23.002637375752336 23.06507105474526 23.388054836188847 24.829041438392913 23.15740560762093 24.493329688599896 24.829041438392913 26.033917343806394 1.0042973159320059 1.2128778751758162 1.6105059232090375 2.2701241002258477 3.7692057022218544 12.838020478069787 1.6492558965663022 1.6983791141396014 1.9541575721167934 3.122374198971678 1.7748615802408219 3.4716566283970822 3.122374198971678 4.6915013971459194 2.1819114322557223 2.2571923511199241 2.579045024451883 3.9422412149424138 2.3419017685084178 3.7081552626594516 3.9422412149424133 5.3879604598504311 3.1939756921836366 3.254588282792878 3.5413702807256389 4.7517954946443162 3.3287861628731044 4.8863692677918777 4.7517954946443162 6.4519918186268992 12.838020478069787 12.898292998180107 13.189204829681783 14.293030561648708 12.959253056788086 14.33455486151381 14.293030561648708 15.429199136606883 1.2308916973914013 1.4540907275378965 1.7886455505411583 2.0790092792724897 2.4450447870157026 2.8467973053056355 3.1547052720495645 3.4998316471770154 3.8679591584301454 4.3756510824475239 4.9213802646875475 5.3066208957542083 5.9077532234038781 6.5652229862605642 7.3175534736227217 8.1807920793250304 9.087467333501337 9.9777133596291954 10.916906467901432 11.881514795882246 12.981711429202372 14.329705638728287 16.300244106176702 19.156353553972096 23.280849795680147 29.999999999999957 2.0263937642598204 2.086461746120309 2.3590481220218367 3.5922203808184063 2.1674515217725778 3.5378385936736141 3.5922203808184063 4.9124451608175548 2.3859235492655069 2.4449872566175843 2.7166769858375059 3.8021492297457002 2.5083197912398285 3.9194501986568513 3.8021492297457002 5.4793205385244574 2.6988792073352426 2.7401532684042942 2.9606637594758451 3.8740585929314451 2.7945291057396759 4.2055139945486184 3.8740585929314451 4.9769252898265997 3.0946654765875246 3.1543964539087286 3.4005580149024115 4.6499615025119674 3.2462868641322653 4.5867770954216143 4.6499615025119674 5.9306676609644269 3.5307883930333679 3.5883779205809021 3.8689680631830905 5.1663165906960407 3.6747689829601189 5.062315498804864 5.1663165906960407 6.5617425103172184 3.8663187490581725 3.9341122206866808 4.2413929527778773 5.5470609039564387 4.014999824586087 5.4725915882482434 5.5470609039564387 6.7488505190973864 4.2437962581357382 4.3125996166709353 4.5906025517610081 5.9965518771398916 4.4158601368812107 6.1602808391963952 5.9965518771398916 7.5971491618859623 4.6481329135742149 4.6931771328985468 4.9068146427627086 5.9802643916806515 4.7704880756771368 6.4404805880443821 5.9802643916806515 7.393454196183793 5.2088224492875188 5.2847560929581476 5.5818011439940323 6.8695994318752973 5.3673304265278405 6.9353414686437844 6.8695994318752973 8.5486332028604402 5.8157675329749576 5.8734385088401382 6.1301326041456008 7.3124397752534023 5.9525275883857613 7.4677257654392122 7.3124397752534023 8.4190594333196991 6.247069797998039 6.2999446774912711 6.5667345148047822 7.6688811946722515 6.3657317294042715 7.5871726095479124 7.6688811946722524 8.8793663549611193 6.9251679524461389 6.9738733435931772 7.2062624764855983 8.2311136038265111 7.0392956627381427 8.2555111412480926 8.2311136038265111 9.7478370872590734 7.6745535966519833 7.7400614028800589 8.0206219393794207 9.2611589099952329 7.8202799058530923 9.2180440293784454 9.2611589099952329 10.362370273353875 8.5430874674173189 8.6094503150681376 8.9343747302390586 10.213614377014808 8.6825645747638287 9.9035310604734867 10.21361437701481 11.546019845954026 9.5560514057491694 9.6064800693618846 9.8607499880158294 11.058352288259158 9.6873767944223665 11.093092182164629 11.058352288259158 12.256644290173154 10.641682977284045 10.704050223860795 10.966507272104023 12.330799634080664 10.806346426504609 12.193497774309281 12.330799634080662 13.894513081039943 11.732837348811458 11.792969515247071 12.087122997721448 13.336061411082087 11.869715665222193 13.346809249222916 13.336061411082087 14.781660330537203 12.915850270223668 12.967131688378005 13.223673470106654 14.384066655592708 13.042666974307238 14.368144831666807 14.384066655592706 15.542788367519547 14.17144664771836 14.235163228789025 14.526709449975346 15.798293144400031 14.315817356125832 15.739674536961461 15.798293144400031 17.19626842986305 15.664788842744251 15.733928433618136 16.033320677585923 17.424155634123903 15.827944312400204 17.256879946701265 17.424155634123903 18.739974105688155 17.608133946875462 17.674982276645903 17.958480598729601 19.159697522032335 17.749718282488431 19.476825892164474 19.159697522032335 20.458854056959559 20.771231265924413 20.828174076174427 21.112567858315668 22.419097553877965 20.914477803609941 22.249304989614945 22.419097553877965 23.805468130862717 26.634028462085084 26.69462952668022 26.960755188039883 28.201848236605528 26.778709844682311 28.036153447369578 28.201848236605528 29.41257441513363 1.4633723007005841 1.7491518665636103 5.8678969941857684 5.8678969941857684 5.9315487776614582 6.2175622762815825 7.4192311101568249 6.0052722090941586 7.28810496064352 7.419231110156824 8.7279951056442791 1.7020531120859279 2.0613508224528019 2.6930678134603574 3.051848212668089 3.7799912082139637 4.3363229235042002 5.4215128137327948 6.7711878503841803 18.534740158325082 25.763753628737444 3.1040267313214085 3.1808979103294361 3.4846201968553454 4.8705322307425165 3.2739165331042979 4.8883341057642271 4.8705322307425165 6.265416167757909 3.9862399718437818 4.057036090031894 4.3485357479485289 5.7884729022692909 4.1604197172160635 5.6609373871747755 5.7884729022692909 7.1170467564641875 4.5191904719554108 4.5722394854712949 4.8314273599958009 5.9645414053663206 4.6438272944494727 6.2237006186743393 5.9645414053663197 7.2589862536372287 5.6997292716800096 5.7591070432981679 6.0349575543554925 7.3197056456700071 5.8455946622650208 7.3094917128381374 7.3197056456700071 8.7808909041752692 6.7304395680420699 6.796469826105688 7.1056986521156711 8.6023383778266691 6.9007628350850574 8.3130756079951578 8.6023383778266691 10.114733637929032 9.3771373711486881 9.4176262377118967 9.6419204029595225 10.697218184903431 9.4883218936559999 10.756675696037984 10.697218184903431 12.337476936163911 25.763753628737444 25.820123538671002 26.099034665776745 27.445530619183387 25.913314127470418 27.838223180196064 27.445530619183387 28.506103830829893 1.9472739310695519 2.2964859263145039 5.3953735792513244 9.6626898384741811 9.6626898384741811 9.7182606811546624 9.9643782354258033 11.126212674924711 9.7977891881493857 11.095847813103124 11.126212674924711 12.529559999153728 2.1994032799214835 2.4481911491892938 2.8173658949724079 3.1071711709999073 3.3870402497134604 3.8388040600269173 4.2914757852504373 4.6495922383626693 5.0578892821397687 5.3582122981729494 5.878580914348694 6.1891114956708506 6.5796433853769685 6.9319133613961075 7.3904536280734172 7.8316062304486085 8.4701241760602848 8.9661494551113741 9.2850285589882553 9.9691650260742133 10.377177771215546 11.036806432354453 11.790768890096849 12.452633567170666 13.236382056592385 13.9331689201312 14.52444086361178 14.969739368690812 15.971746405600818 17.108541305126103 18.070453468083457 18.985419966518077 20.09609289780866 21.570933632545817 23.049509341105889 24.830148534709231 26.591470811685056 28.89713659582786 30.000000000000007 2.9117562486898683 2.959311570096824 3.22505731103448 4.3636719272697011 3.0290684177500782 4.5702009954748988 4.3636719272697011 5.7957589801090306 3.293505781128518 3.3554568213124383 3.6537614018644868 5.105809818937308 3.4569377609973966 4.8988104054386774 5.105809818937308 6.2260193832323409 3.5934250562723928 3.6509738790955528 3.9573353654704864 5.2981665066283732 3.7351411500606373 4.9288580540549729 5.2981665066283732 6.6910628883599212 3.8832688623437734 3.9533328661005283 4.2671692975249949 5.5264867150225783 4.0273249374653162 5.1545785864173119 5.5264867150225783 6.8315458722648064 4.3515753533603538 4.4000200153896882 4.6513563590799976 5.8018034528592626 4.4755161199953957 6.0074229776687078 5.8018034528592617 6.9969208973357562 4.8213866800286169 4.8822276861006237 5.1533730306001049 6.3639835001327594 4.9609073521446998 6.5496134891347433 6.3639835001327594 7.9396905513458682 5.1934754324823018 5.252752522108362 5.5097543476838347 6.7183045258968033 5.3353512195569675 6.8557387202192341 6.7183045258968033 7.9620169987777656 5.6181616892075859 5.675252158496213 5.9359170894449527 7.0369025931000406 5.7430263165691349 7.2952395718415843 7.0369025931000397 8.1471092950819877 5.9308606618057205 5.9792881809363347 6.2252329636424939 7.3017707185559511 6.0471457137907443 7.776941905663894 7.3017707185559502 8.6615443403307619 6.4733376443713873 6.5291866938341858 6.7759185028095903 7.8877140814722724 6.6021240790509754 8.3293051633642055 7.8877140814722715 9.6782698843173058 6.7974748319856246 6.8557192488784517 7.116969644894569 8.3222652967194417 6.9364115886115396 8.4269587255658056 8.3222652967194417 9.5507404764484622 7.2055714998056111 7.2517859667705702 7.5040860923582899 8.4540724182029283 7.3032041759631845 8.8284483436049683 8.4540724182029283 10.148225635100435 7.5741300263497777 7.6224962904054019 7.876103639465228 8.9696289047416791 7.6902604152627223 8.9970428960933937 8.9696289047416791 10.356195009368081 8.0545244811230194 8.1127599526016088 8.3862765130115324 9.4587157822156342 8.1740780107674098 9.8906622083840858 9.4587157822156342 10.635308378388498 8.5174214882768098 8.5665635485293219 8.8152621848360262 9.8540202063102562 8.6292053355833929 10.202825932850462 9.8540202063102562 11.142677166310868 9.1887119264038883 9.2472414857098215 9.5170716487107629 10.767872620264235 9.3311365795393915 10.741482508758121 10.767872620264237 12.050989526177862 9.7113020686694167 9.7584661020837888 9.994683406478746 11.006844775426758 9.8210683735172939 11.177999200507639 11.006844775426758 12.219129713120202 10.047789407034433 10.094943143205688 10.353116805598694 11.514719531002051 10.169624895512477 11.144494371451533 11.514719531002051 13.115420837916947 10.771160864447408 10.844241979339149 11.163982105533591 12.547188883167891 10.931698500331876 12.308240517978831 12.547188883167891 14.023839828875094 11.203555596383797 11.260545602025799 11.515166257927573 12.667504554314164 11.33636494130455 12.689615213145046 12.667504554314164 14.129189498351838 11.904229261920042 11.954009138658151 12.193060667203065 13.251465949464047 12.021783987753377 13.070501550926958 13.251465949464045 14.604651058299696 12.707692034319507 12.746452616947868 12.978600017545173 13.998997859809503 12.810173015651904 14.076337413807822 13.998997859809503 15.413280665797636 13.41541415637945 13.475944583067971 13.799852108863968 15.234466380172437 13.566983500009131 15.019073251441752 15.234466380172437 16.836242816127768 14.25654931684366 14.306099480560976 14.551942218524724 15.694579160855044 14.382440292487168 15.53010091896728 15.694579160855042 16.981588540382667 15.007332810905215 15.054514928798808 15.294896819407825 16.303470873965999 15.115562702110335 16.258469766487 16.303470873965999 17.757892363079335 15.646751062095682 15.697676855693217 15.98252933628436 17.157652338456902 15.767081408682843 17.313251272366006 17.157652338456902 18.667647390175404 16.129788502699618 16.175277599745495 16.416446298218855 17.411642778585477 16.234348196765382 17.554556710288558 17.411642778585477 18.69764509972169 17.221634173880332 17.267974984300388 17.486880471237406 18.392883317645829 17.322496843970352 18.464732557875035 18.392883317645829 19.863950801024355 18.4692232576236 18.535983212009889 18.813097273171788 20.065338491685459 18.618860339867382 19.95561527286187 20.065338491685459 21.218974677100825 19.532928300319064 19.600243328848382 19.881121986323276 21.202852816957385 19.690964584933401 21.101726956403297 21.202852816957385 22.429163627163351 20.552180532286023 20.605269237056572 20.856292484239308 21.94087461462879 20.673242477264694 21.872219608954172 21.94087461462879 23.445814519658484 21.800112033152743 21.848767320948017 22.091501405503717 23.235700487137954 21.926181947783768 23.857307184963815 23.235700487137954 24.783628127935188 23.477285413577881 23.530426332523895 23.768516043659282 24.86872364958824 23.604199810013331 25.170458221481148 24.86872364958824 26.385179919084106 25.184716326955424 25.252585272613793 25.580961706221057 26.817878067117078 25.320393140463523 26.654199415284445 26.817878067117075 28.109685522007513 27.281048319280941 27.332209407143665 27.587286344987415 28.710237928509525 27.403493570160368 28.874092207577316 28.710237928509521 29.829292915058822 29.405328996471905 29.458953833981173 29.73579866963567 30 29.530123894712741 30 2.4588417349370912 2.737241871158052 7.8719206983683181 7.8719206983683172 7.9237191965523381 8.1716499016189097 9.2940381891304309 7.9971206405211559 9.3153800708604972 9.2940381891304309 10.345441681904056 2.7260257551267379 3.2614494073252347 8.3062878836313985 8.3062878836313985 8.36778690546201 8.655516398287233 10.031464661160555 8.4626300884172121 9.8445994776977006 10.031464661160555 11.512463224149874 3.0014321001941831 3.205270914761233 3.4447814382435844 3.7647157626796077 4.1549635240021905 4.5044813596973761 4.7519638103764557 5.1256958265516452 5.6294262561589061 6.1452304855518749 6.5989351079738681 6.9826278320148774 7.5158583950188032 7.948199299194556 8.6320797415830555 9.3111614976762134 9.8863275634351275 10.175009078772817 10.748374212958147 11.451025268254465 12.0166712037955 12.533951391348806 13.181652736069282 13.900794923881602 14.767783607162674 15.747397240104236 16.846167174906384 17.664017492199001 18.623908169878554 20.09931489471774 21.830620330255186 23.901335834130165 27.368225173016725 30.000000000000011 3.8760950231738187 3.9294836111265488 4.1720468723875133 5.2864686183560714 4.003717806731518 5.3449674819427857 5.2864686183560714 6.6427659813081048 4.1293551184879567 4.1873171382950707 4.4373572825531502 5.6321651904397445 4.2702143622947153 5.9031972110874653 5.6321651904397445 6.835924601072513 4.4681094524260976 4.5292989444032399 4.8054137464768889 6.1326013586201471 4.6214989615263855 6.0263214544573955 6.1326013586201471 7.5982454949871086 4.8820364768265163 4.9412403965719438 5.2094309233524543 6.4107842657457237 5.0194339308401172 6.1416081514813516 6.4107842657457237 7.9681096629936103 5.2534591676352864 5.3108740249678803 5.5940586636682958 6.6076185292062553 5.3636053140911182 6.5965681274898449 6.6076185292062544 7.9008106417347177 5.5168623366944942 5.5929695868670173 5.9018315813742701 7.3855453895054399 5.6970062935533399 7.0672176598729797 7.3855453895054399 9.0730516338288485 5.9153016949837376 5.9709673889369004 6.2485473644913512 7.4393754210529295 6.0447337683958162 7.6332222866398443 7.4393754210529295 9.0739213238662213 6.4536446570840322 6.5039335339450819 6.7474221103056458 7.8892081631750806 6.5810052668807826 7.8595523993658176 7.8892081631750814 9.0328016275480127 7.0065203215850227 7.0492949876470314 7.3110722925512102 8.4685517065129048 7.1218731086616156 8.2566788919392593 8.468551706512903 9.9604648187535769 7.4942605169006429 7.5606491870697754 7.8878918200136594 9.1864582917417756 7.6353850548502811 9.33499522295795 9.1864582917417756 10.57895034381154 7.9078247543104183 7.9621313324374094 8.2530814475788219 9.4119336067289758 8.0285314693477705 9.2243223911668206 9.4119336067289758 10.771015244333626 8.4842980846532381 8.5412774652048444 8.8188977297257267 10.014814830291144 8.6158071983499251 9.9841587059776185 10.014814830291144 11.318736736807919 8.9532415499177631 9.0195480217611284 9.3146116313903224 10.691813325417622 9.1128061624244925 10.66542257114696 10.691813325417623 12.152642480317667 9.6979926463844919 9.7619124296734245 10.034306895153918 11.223020004463024 9.8378892788014909 11.15620612850174 11.223020004463026 12.687696239523367 10.441338065150594 10.504851857851225 10.842662881664088 12.194336288947406 10.58269862680395 11.929320517011149 12.194336288947405 13.460547418027527 11.074105695688466 11.135291727660752 11.405483137709956 12.594527032084827 11.211608644239863 12.686524986670255 12.594527032084825 13.822311795076489 11.392851361089441 11.449354563092092 11.717721431762577 12.875165480252933 11.521741274423796 13.048005636158853 12.875165480252932 14.076754234312659 12.028326052739892 12.076442866830451 12.313058270627787 13.372238040636358 12.144822797452466 13.276148064478063 13.372238040636359 14.630933905598017 12.811675381008824 12.862233541095014 13.117994814104165 14.326497062105053 12.944087980458521 14.253383473063748 14.326497062105053 15.668733417667063 13.446187868486932 13.496291576190304 13.734808211314787 14.863788983119996 13.573269288680537 14.939976441059136 14.863788983119997 16.378153538352777 14.029684943504678 14.084390270773111 14.329533161436926 15.35063513901223 14.146545455286869 15.868818521291079 15.350635139012228 16.810145725674548 14.764929671510686 14.845459442828759 15.195788630292876 16.822878443639073 14.955374012456335 16.285544209463708 16.822878443639073 18.104349765485686 15.58771540063764 15.636029274114007 15.878980148622389 16.939104996593013 15.702713826237522 16.945322660989905 16.939104996593013 18.285856265483609 16.589414755213504 16.644846655171538 16.926757517629298 18.045170508217865 16.709000351942375 18.320648343727381 18.045170508217865 19.376678036791432 17.73532386633029 17.791833432648772 18.044204150650891 19.129802967144396 17.85996856337017 19.464422810233096 19.129802967144396 20.760428594346404 19.040441993034968 19.099328965802609 19.354353241095474 20.430741463957794 19.165906982427678 20.63323701495241 20.430741463957794 21.714914612350572 20.027061817912006 20.088625787069109 20.34470865434081 21.519092989589765 20.167388269712308 21.656646093086696 21.519092989589765 22.915585386730154 21.203503272645463 21.263901196552737 21.53991036927313 22.751350381476769 21.341204681643664 22.832477858718558 22.751350381476769 24.478497392935761 23.056108928157787 23.1169883304627 23.404624157669048 24.634576471850451 23.193328249137565 24.388167305177756 24.634576471850451 26.131572503560228 25.311735952872489 25.360969718525684 25.583834575749471 26.679997892902865 25.438706145248879 27.076998439025676 26.679997892902865 27.904147652605133 28.15635604148564 28.207516678732677 28.440929309913589 29.468025183543801 28.273223644729807 29.709767829478348 29.468025183543801 30 3.2855829501096765 3.4448232344195659 3.7015444665446529 3.9279695882435868 4.0820036540715261 4.434739596601398 4.8352248634262915 5.1588749087555144 5.4581618014091928 5.7836715844328195 6.0910327776402271 6.3805789435182785 6.7973187140039073 7.1088957436895654 7.3985956071791019 7.7293389010318894 8.1451682306681281 8.5388155711624592 8.8652077682762158 9.3876103253257721 9.6863915882273819 10.186155188688815 10.666201111693969 11.248083475009718 11.690508903997104 12.268050821775793 12.83988729171805 13.347468831906449 13.952486554307088 14.670685252147798 15.355337267180975 16.182021170077817 16.862972663641973 17.519667843237112 17.960328546985924 18.886684182089908 19.594444867531454 20.566163238465048 20.952256220097393 21.87838453635759 22.856452480950942 24.191286952155341 25.737928957802609 27.067401501527829 28.801509821168729 30.000000000000018 3.9189446678126134 3.9826777210595554 4.3031791418355896 5.7371960930529138 4.075036288420284 5.3122565800292074 5.7371960930529129 7.3289023323884219 4.1844601539402699 4.2420366084914152 4.5701380934333065 5.9019567638867141 4.3193446773455753 5.5362411912697684 5.9019567638867141 7.7288927612459561 4.418779338414315 4.4776273136269813 4.7613670951944851 6.0132837020805017 4.5575041680352495 5.5266682723478295 6.0132837020805017 7.3058363514201492 4.5782585505774707 4.6367263322018939 4.9208241359239908 6.05382748410634 4.7023433682665123 6.2140415545329857 6.0538274841063409 7.3536957798880866 4.9436965765086018 5.0163184658719171 5.344673556536236 6.8889531949992282 5.1214681734579708 6.1946703216964254 6.8889531949992282 8.131681337984034 5.3590052785041635 5.4293786615369619 5.7405295365534474 7.085089946508913 5.5142130996629852 7.0685299835463242 7.085089946508913 8.4606998148220995 5.694955635910171 5.7477254155990263 5.972956511766907 6.9218393468041608 5.8064064036385963 7.2074585099259432 6.9218393468041608 8.1204454869059273 6.0058788141365653 6.0644394830800916 6.3470042578123493 7.6322210030214848 6.1487986924160261 7.2622238662170071 7.6322210030214848 9.0281904497811603 6.3443370563968049 6.4215031391731534 6.7492132534256903 8.1354634815360534 6.5076051977149456 7.8300372068216504 8.1354634815360516 9.2069038131909764 6.6642113457276437 6.7170948712856884 6.9609704940020212 8.0564833969022231 6.7884660230396365 8.2817960575425058 8.0564833969022231 9.4178291201067026 6.9658059808773327 7.0336534850954724 7.300013627553759 8.3424472831381209 7.0944025943532214 8.6495859538855786 8.3424472831381209 9.4571692722163121 7.4003424290719098 7.4611813518683983 7.7798158277222109 9.1285270064237913 7.5433030618784986 8.7673887098246706 9.1285270064237913 10.469941852936554 7.7255856007517849 7.8002448383664849 8.0989761910030271 9.5183095971061498 7.8989234600986524 9.3906775224269463 9.5183095971061498 10.931956039621898 8.0282759587148362 8.0762164553462767 8.3274995424000835 9.4882051074221483 8.1529726527806829 9.4666226986233752 9.4882051074221483 10.934019949432315 8.3741927183604723 8.4309537657236433 8.7165855334301163 9.9232867303775105 8.5045585927916054 9.8206322485500834 9.9232867303775105 11.513526170757387 8.8096311494328887 8.8683567440357152 9.1699324030773859 10.415486257649427 8.9425647522263532 10.396490809705988 10.415486257649427 12.03622375822275 9.2224040140806984 9.2775860465585129 9.5396483750322822 10.761163865130118 9.3597191941896956 10.655483731922393 10.761163865130118 12.236267464888302 9.5650812443126956 9.6208240996738112 9.8794371040268629 11.01209380144595 9.6928513364497597 11.33543843522218 