<?xml version="1.0"?><VTKFile type="PolyData" version="0.1" byte_order="LittleEndian">
    <PolyData>
        <Piece NumberOfLines="7" NumberOfPoints="68">
            <PointData Scalars="Pointdata">
                <DataArray type="Float32" Name="time" NumberOfComponents="1" format="ascii">0 0.049787897292674452 0.10178930331052637 0.1562102324498835 0.21328686990850668 0.27329176674898276 0.33654171147395068 0.403407853861245 0.47432890156394353 0.54982858138245749 0.63053913401382733 0.71723353095668052 0.81087061303789432 0.91265991634842059 1.0241574829464013 1.147412324511845 1.2851995146018378 1.4414097470517218 1.6217412260757886 1.8350280959842953 2.0960701276397327 2.4326118391136831 2.9069407406776264 3.7178113537155224 8.0809616123073589 0.81087061303789432 1.6295450998983689 2.5866511247943085 3.7387249571576016 5.1860603621025696 7.1341581737213744 10.125187117398761 16.849756335119274 30.000000000000032 8.0809616123073589 9.008876191634144 10.093693965629107 11.399495138950604 13.039956207396186 15.247999074699774 18.638136923834494 26.260001189745626 30.000000000000007 0 0.02661785818422022 0.057106080251564786 0.085147672702714505 0.12645683449438591 0.17793255068131275 0.23070858062030303 0.32349345859890122 0.49378880400433017 1.4506286085862488 1.0851476727027145 0.17804185683269683 0.38357609660237452 0.62667150566098073 0.85247128650519655 1.2307085806203031 0.17804185683269683 0.38357609660237452 0.62667150566098073 0.85247128648036408 2.450628608586249 0.17804185683269683 0.38357609660237452 0.62667150566098073 0.85247128612101242 </DataArray>
            </PointData>
            <CellData Scalars="CellData">
                <DataArray type="Float32" Name="organtype" NumberOfComponents="1" format="ascii">2 2 2 4 8 8 8 </DataArray>
                <DataArray type="Float32" Name="id" NumberOfComponents="1" format="ascii">1 4 6 2 7 9 11 </DataArray>
                <DataArray type="Float32" Name="emergencetime" NumberOfComponents="1" format="ascii">0.049787897292674452 1.6295450998983689 9.008876191634144 0.02661785818422022 0.17804185683269683 0.17804185683269683 0.17804185683269683 </DataArray>
                <DataArray type="Float32" Name="creationtime" NumberOfComponents="1" format="ascii">0 0.81087061303789432 8.0809616123073589 0 1.0851476727027145 1.2307085806203031 2.450628608586249 </DataArray>
                <DataArray type="Float32" Name="age" NumberOfComponents="1" format="ascii">30 29.189129386962104 21.919038387692641 30 30.914852327297286 30.769291419379698 29.54937139141375 </DataArray>
                <DataArray type="Float32" Name="subtype" NumberOfComponents="1" format="ascii">1 2 2 1 2 2 2 </DataArray>
            </CellData>
            <Points>
                <DataArray type="Float32" Name="Coordinates" NumberOfComponents="3" format="ascii">0 0 -3 0.023008826890219689 -0.013267431194253582 -3.2485851346212029 0.011008552859508051 -0.00030582286032007633 -3.4979603341350791 -0.013383082283095775 0.022649772257404596 -3.745706350829316 -0.037467842721214756 0.044409756316975704 -3.9935902498795883 -0.10713754454511562 0.040949056190857577 -4.2336613980886266 -0.17821466212722886 0.045309009523419617 -4.4733049545702404 -0.24635268315458933 0.047551420405603687 -4.7138297592867406 -0.2944623416835852 0.06648746339123475 -4.9584251129471681 -0.34107027761143727 0.071635097659595873 -5.2039881438984583 -0.36724287707229797 0.11627589826299746 -5.4485739038252143 -0.39081152150759035 0.15123066279382824 -5.6949936340338096 -0.45475084593723009 0.17173302984674182 -5.9358077028435634 -0.51927437161164425 0.18934896437548995 -6.1766943846780356 -0.61334141498786909 0.21160653289860204 -6.407250217382165 -0.67657677416447626 0.25392829105402703 -6.6453891645043006 -0.74109946558215023 0.29824226257517977 -6.8828193526022803 -0.83800678572907872 0.33136487830288369 -7.1108804488666273 -0.93884172268682298 0.41147061906545146 -7.3251592060629669 -1.0388324535522877 0.49102029059386887 -7.5400398787646115 -1.1365112111031594 0.57230261578898112 -7.7553351270498307 -1.2203157340859707 0.63561506535687584 -7.9822014657987435 -1.3019104275218345 0.70140603687939085 -8.2091681022659362 -1.3508490739032162 0.76972238206725996 -8.4446206152500416 -1.3527135499777787 0.8602874128844743 -8.6776324151662152 -0.037467842721214756 0.044409756316975704 -3.9935902498795883 -0.046839274350274671 0.28210590189343332 -4.070484454130086 -0.061621399688325397 0.51531485192279214 -4.1593386852994243 -0.051807221878017506 0.75059604780884581 -4.2432817658739195 -0.046586009354268168 0.98892873559751937 -4.3185829535883808 -0.0038348590344572733 1.2002676824588665 -4.4451064244776575 0.018279873328193575 1.4233534724083587 -4.5557575380515365 -0.008492519710091493 1.6087871541711629 -4.7212797076811501 -0.010518180283513845 1.6849249902587433 -4.7847970226031018 -0.74109946558215023 0.29824226257517977 -6.8828193526022803 -0.81466342880647225 0.09099567796333316 -7.0017192957538867 -0.91553018428505317 -0.11046954939076975 -7.1100597766757643 -1.002748346520733 -0.30853666150720427 -7.2352093323045654 -1.0816656870207118 -0.51382218445341887 -7.3540786194947794 -1.1471936988153897 -0.71833171098583892 -7.4820705459109478 -1.2039600335087133 -0.92635729759052376 -7.6085732674755935 -1.277123865161502 -1.1555535107446377 -7.676515519526113 -1.2877864248840445 -1.2022714920289872 -7.684130372746746 0 0 -3 0 0 -2.75 0 0 -2.5 0 0 -2.2999999999999998 0 0 -2.0499999999999998 0 0 -1.7999999999999998 0 0 -1.5999999999999999 0 0 -1.3499999999999999 0 0 -1.0999999999999999 0 0 -0.90000000000000013 0 0 -2.2999999999999998 4.523848439639673e-18 -0.0738800516653349 -2.0611658777185982 9.047696879279346e-18 -0.1477601033306698 -1.8223317554371967 1.357154531891902e-17 -0.2216401549960047 -1.5834976331557953 1.7095317537360198e-17 -0.27918772252150781 -1.3974619920108369 0 0 -1.5999999999999999 -1.3571545318919018e-17 0.0738800516653349 -1.3611658777185984 -2.7143090637838037e-17 0.1477601033306698 -1.1223317554371968 -4.0714635956757053e-17 0.2216401549960047 -0.88349763315579533 -5.1285952611013664e-17 0.27918772251569979 -0.69746199202961279 0 0 -0.90000000000000013 2.2619242198198367e-17 -0.0738800516653349 -0.66116587771859858 4.5238484396396735e-17 -0.1477601033306698 -0.42233175543719709 6.7857726594595099e-17 -0.2216401549960047 -0.18349763315579559 8.5476587659290328e-17 -0.27918772243165119 0.0025380076986806221 </DataArray>
            </Points>
            <Lines>
                <DataArray type="Float32" Name="connectivity" NumberOfComponents="1" format="ascii">0 1 2 3 4 5 6 7 8 9 10 11 12 13 14 15 16 17 18 19 20 21 22 23 24 25 26 27 28 29 30 31 32 33 34 35 36 37 38 39 40 41 42 43 44 45 46 47 48 49 50 51 52 53 54 55 56 57 58 59 60 61 62 63 64 65 66 67 </DataArray>
                <DataArray type="Float32" Name="offsets" NumberOfComponents="1" format="ascii">25 34 43 53 58 63 68 </DataArray>
            </Lines>
        </Piece>
    </PolyData>
</VTKFile>
