<?xml version="1.0"?><VTKFile type="PolyData" version="0.1" byte_order="LittleEndian">
    <PolyData>
        <Piece NumberOfLines="415" NumberOfPoints="46924">
            <PointData Scalars="Pointdata">
                <DataArray type="Float32" Name="time" NumberOfComponents="1" format="ascii">0 0.057179743273402361 0.1144176847172771 0.17171394292180431 0.22906863684002873 0.28648188578930389 0.34395380945280668 0.40148452788102135 0.45907416149326979 0.51672283107918582 0.57443065780026015 0.63219776319135634 0.69002426916227144 0.74791029799924158 0.80585597236651918 0.86386141530791971 0.92192675024841464 0.92193033013321035 0.98005568458250802 1.0382411790382049 1.0964869380781761 1.1547930866677918 1.2131597501615143 1.2715870543045398 1.3300751252343861 1.3886240894825514 1.4472340739761509 1.5059052060395615 1.564637613396106 1.6234314241696841 1.6822867668864743 1.7412037704766077 1.8001825642758871 1.8592232780274529 1.8592265139634065 1.9183292812221322 1.9774942291555369 2.0367214887391643 2.0960111913628259 2.1553634688323355 2.214778453371296 2.2742562776228255 2.3337970746513585 2.3934009779444239 2.453068121414463 2.5127986394005966 2.5725926666704653 2.6324503384220419 2.6923717902854913 2.7523571583249744 2.8124065790405299 2.8124089572215629 2.872522570094469 2.9327005099640377 2.9929429146491699 3.0532499224121326 3.1136216719604866 3.1740583024489903 3.2345599534815501 3.2951267651131135 3.3557588778516441 3.4164564326600675 3.4772195709582339 3.538048434624919 3.5989431659997746 3.6599039078853441 3.720930803549094 3.7820224352896541 3.8431820684827729 3.9044082880623949 3.9657012391758815 4.0270610674457012 4.088487918971536 4.1499819403323208 4.2115432785883753 4.273172081283497 4.334868496447112 4.3966326725963656 4.4584647587382982 4.5203649043719834 4.5823332594907296 4.6443699745842144 4.7064752006407105 4.7686490891492692 4.7686506310379411 4.8308933356981569 4.893205007303612 4.9555857988590919 5.0180358638791205 5.0805553563902386 5.143144430933245 5.2058032425655183 5.2685319468633107 5.3313306999240622 5.3941996583687546 5.4571389793442204 5.5201488205255211 5.5832293401183062 5.6463806968612236 5.7096030500282762 5.7728961131425871 5.8362609386303568 5.8996972415995712 5.9632051834899649 6.0267849262888582 6.0904366325335895 6.1541604653140389 6.2179565882751309 6.2818251656193445 6.3457663621092788 6.409780343070163 6.4738672743924388 6.5380273225343641 6.6022606545245601 6.6665674379646571 6.7309478410319032 6.7954011588585397 6.85992930702451 6.9245315828272487 6.9892081567730369 7.0539591999570996 7.1187848840663444 7.1836853813821202 7.2486608647829085 7.3137115077471302 7.3788374843559064 7.4440389692958515 7.5093161378619122 7.5746691659601533 7.6400982301106213 7.705603507450224 7.7711851757355745 7.8368396958911966 7.9025746774833658 7.9683865870282942 8.0342756047905723 8.1002419116691282 8.1662856892002385 8.2324071195605324 8.298606385569979 8.3648836706949368 8.4312391590512057 8.4976730354070824 8.5641854851864849 8.6307766944720008 8.6974468500080437 8.7641961392040191 8.8310247501374288 8.8979309809824318 8.9649188000583031 9.0319865091394167 9.0991342990077531 9.1663623611295098 9.23367088765837 9.3010600714388225 9.3685301060094321 9.4360811856062057 9.5037135051659583 9.5714272603296511 9.6392226474458162 9.7070998635739585 9.7750591064880048 9.84310057467974 9.9112244673623255 9.9794294570551916 10.047718797405913 10.11609116424561 10.184546759708013 10.253085786665945 10.321708448734872 10.390414950276559 10.459205496402751 10.528080292978784 10.597039546627334 10.666083464732113 10.73521225544161 10.80442612767288 10.873725291115296 10.943109956234377 11.012580334275649 11.082136637268459 11.082138354553415 11.151780797442818 11.221509591714815 11.291324951773715 11.361227092823313 11.431216230870913 11.501292582731342 11.571456366030933 11.641707799211623 11.712047101535017 11.782474493086488 11.852990194779315 11.923594428358861 11.994287416406719 12.065069382344937 12.135940550440282 12.206901145808457 12.206904950567326 12.27795520398735 12.349095337487869 12.420325578757367 12.491646156350615 12.563057299693059 12.634559239085279 12.706152205707403 12.777836431623616 12.849612149786685 12.921479594042466 12.993438999134511 13.065490600708642 13.137634635317593 13.209871340425682 13.282200954413474 13.354622549277128 13.427138698348507 13.499748476982321 13.572452127271662 13.645249892249813 13.718142015895078 13.791128743135706 13.864210319854857 13.937386992895521 14.010659010065554 14.084026620142705 14.157490072879682 14.231049619009273 14.304705510249439 14.378457999308511 14.452307339890407 14.526253786699828 14.526256191226453 14.600300003142198 14.674441433726766 14.74868074071909 14.823018182880173 14.897454019998543 14.971988512895674 15.046621923431477 15.121354514509846 15.196186550084169 15.271118295162941 15.346150015815418 15.421281979177248 15.496514453456202 15.571847707937907 15.647282012991631 15.72281764007613 15.722822085795228 15.798459313448026 15.874198409357072 15.950039648284914 16.025983306107225 16.102029659818839 16.178178987539862 16.254431568521699 16.33078768315325 16.407247612967083 16.483811640645648 16.560480050027568 16.637253126113961 16.714131155074742 16.791114424255102 16.868203222181894 16.945393664814443 17.022694384832782 17.100101506317479 17.177615322587361 17.255236128175834 17.332964218837596 17.410799891555371 17.48874344454677 17.566795177271086 17.644955390436248 17.723224386005725 17.801602467205576 17.880089938531452 17.958687105755725 18.037394275934624 18.116211757415435 18.195139859843746 18.195143826058967 18.274182865964328 18.353333150048247 18.432594991895275 18.511968706417811 18.591454609863533 18.671053019823017 18.750764255237321 18.830588636405672 18.910526484993159 18.990578124038556 19.070743877962116 19.151024072573449 19.231419035079536 19.311929094092651 19.39255457963846 19.473295823164133 19.47330150941816 19.554158851982198 19.635132619741288 19.716223148456503 19.797430775343475 19.878755839080799 19.960198679818525 20.041759639186708 20.123439060303955 20.205237287786151 20.287154667755118 20.369191547847453 20.451348277223353 20.533625206575543 20.616022688138244 20.698541075696255 20.781180724594016 20.8639419941683 20.946825238067145 21.029830818789286 21.112959098010325 21.196210439012134 21.279585206692374 21.363083767574079 21.446706489815323 21.530453743218992 21.614325899242534 21.698323331007916 21.782446413311533 21.866695522634249 21.951071037151529 22.035573336743607 22.120202803005739 22.120206896815336 22.20496391924285 22.289848876736155 22.37486215609805 22.46000414588822 22.545275236433827 22.630675819840345 22.716206290002273 22.801867042614109 22.887658475181293 22.973580987031315 23.059634979324809 23.145820855066876 23.232139019118307 23.318589878207082 23.40517384093981 23.491891317813348 23.491894138504485 23.57874554627724 23.665731294915528 23.752851800657389 23.840107481678395 23.927498758103621 24.015026052019838 24.102689787487705 24.190490390554125 24.278428289264646 24.366503913676002 24.454717695868709 24.543070069959835 24.631561472115735 24.720192340565053 24.808963115611679 24.897874239647919 24.897876495694852 24.986928416789976 25.076121577988872 25.165456428028875 25.254933417789267 25.34455300030492 25.434315630780091 25.524221766602238 25.61427186735607 25.704466394837581 25.794805813068308 25.885290588309619 25.975921189077177 26.066698086155476 26.157621752612549 26.248692663814698 26.339911297441486 26.339916545089729 26.431283389681692 26.522798919085069 26.614463618009864 26.706277973540214 26.798242475149831 26.890357614717733 26.98262388654399 27.075041787365638 27.167611816372755 27.260334475224603 27.353210268065954 27.446239701543576 27.539423284822728 27.632761529603986 27.726254950140003 27.819904063252572 27.819904779825649 27.913710106119105 28.007672166412792 28.101791485339298 28.196068590169801 28.290504010831743 28.385098279926702 28.479851932748449 28.574765507301102 28.66983954431743 28.765074587277415 28.860471182426789 28.956029878795917 29.05175122821872 29.147635785351785 29.243684107693671 29.339896755604343 29.436274676849408 29.532817669182187 29.629526685531424 29.726402297900599 29.823445081254409 29.920655613539175 30.018034475703587 30.115582251719442 30.213299528602718 30.311186896434752 30.40924494838362 30.507474280725688 30.605875492867408 30.704449187367217 30.80319596995772 30.902116449567981 30.902117409348147 31.001212199818973 31.100481914853422 31.19992717310603 31.299548596519095 31.399346810346096 31.499322443175167 31.599476126952901 31.699808497008284 31.80032019207691 31.901011854325347 32.001884129375782 32.102937666330824 32.204173117798639 32.305591139918128 32.40719239238453 32.508977538475122 32.508981577874103 32.610951291805257 32.713106236792179 32.815447087015308 32.917974520342476 33.020689218355876 33.123591866379222 33.226683153505206 33.329963772623167 33.43343442044705 33.5370957975436 33.640948608360802 33.744993561256628 33.849231368528031 33.95366274644018 34.058288415256023 34.163109099266059 34.163113653160572 34.268130089224918 34.373343001299659 34.478753125939832 34.584361203850058 34.69016797991582 34.796174203234926 34.902380627149405 35.008788009277552 35.115397111546429 35.222208700224527 35.32922354595491 35.436442423788449 35.543866113217618 35.651495398210436 35.759331067244794 35.867368118236485 35.97561892783488 36.084078514272974 36.192747684417881 36.301627249823291 36.410718026765799 36.520020836281624 36.629536504203699 36.739265861199094 36.849209742806835 36.959368989476097 37.069744446604666 37.180336964578011 37.291147398808441 37.402176609774919 37.513425463063086 37.624894829405783 37.624899505841022 37.73659027045624 37.848503305234267 37.96063949659672 38.072999736278426 38.185584921369994 38.298395954360778 38.411433743182258 38.524699201251963 38.638193247517627 38.751916806502081 38.865870808348298 38.98005618886512 39.094473889573351 39.209124857752322 39.32401004648699 39.439130414715429 39.439137366990408 39.554493893827548 39.670087535845347 39.785919269831801 39.901990078623108 40.018300951153748 40.134852882506998 40.251646873966045 40.368683933065626 40.485965073644088 40.603491315896164 40.721263686426184 40.839283218301901 40.957550951108843 41.076067931005255 41.194835210777647 41.313853849896901 41.313856950250191 41.433128021510733 41.5526525913684 41.672431739690019 41.792466553257228 41.912758125825675 42.033307558184831 42.154115958218391 42.275184440965404 42.396514128682 42.518106150903819 42.639961644509079 42.762081753782418 42.884467630479314 43.007120433891245 43.130041330911631 43.253231496102437 43.253232702046645 43.376693320356111 43.50042557924727 43.624430676694743 43.748709818615545 43.873264218939475 43.998095099680157 44.123203691007092 44.248591231318322 44.374258967314034 44.500208154070876 44.626440055117236 44.75295594250921 44.879757096907639 45.006844807655746 45.134220372857932 45.261885099459221 45.261893771021896 45.38984899464149 45.51809602048526 45.6466361825074 45.775470823830119 45.904601296827934 46.034028963212805 46.163755194120377 46.29378137019701 46.424108881688049 46.55473912852694 46.685673520425524 46.816913476965269 46.948460427689625 47.080315812197441 47.212481080237588 47.344947793140712 47.477737195169965 47.610840891728834 47.744260374132935 47.877997144337456 48.012052715038685 48.146428609776592 48.281126363038744 48.41614752036547 48.551493638456236 48.687166285277378 48.823167040171036 48.959497493965479 49.096159249086753 49.233153919671793 49.370483131682633 49.508148523022328 49.508154141413932 49.646157375848119 49.784500101778534 49.923183993640741 50.062210738288897 50.201582035118811 50.341299596192691 50.481365146365185 50.621780423411259 50.762547178155494 50.903667174603108 51.045142190072625 51.186974015330101 51.329164454725188 51.471715326328834 51.614628462072815 51.757905707890934 51.757910533799759 51.90155376211338 52.045564835012236 52.189945641302501 52.334698084375731 52.479824082359414 52.625325568269524 52.771204490165033 52.91746281130429 53.064102510303663 53.211125581298077 53.358534034103791 53.5063298943832 53.654515203811847 53.803092020247689 53.952062417902567 54.101423442337293 54.251187277898424 54.401351017114365 54.551916801372663 54.702886789306909 54.854263156982505 55.006048098084833 55.158243824110066 55.310852564558388 55.46387656713005 55.617318097923956 55.771179441639077 55.925462901778474 56.080170800856287 56.235305480607501 56.390869302200656 56.5468646464534 56.703294206374991 56.860159818909246 57.017464216657118 57.175209861249961 57.333399235092415 57.492034841596812 57.651119205420905 57.810654872708881 57.970644411336046 58.131090411156606 58.291995484255374 58.453362265202855 58.615193411314067 58.777491602911226 58.940259543589939 59.103499960489508 59.103505076014876 59.267220735006553 59.431414396316697 59.596088859377566 59.761246948286079 59.926891512094357 60.093025425104713 60.259651587168896 60.426772923991749 60.594392387439456 60.762512955852394 60.931137634362734 61.100269455216647 61.269911478101484 61.440066790477935 61.610738507917247 61.781929774443334 61.781943181739422 61.953657211177422 62.125897164755415 62.298666273964464 62.471967800170852 62.645805034985436 62.820181300638865 62.995099950362381 63.170564368774862 63.346577972275753 63.523144209444119 63.700266561444195 63.877948542437061 64.056193699999113 64.235005615546925 64.4143879047692 64.594342235332888 64.774876251883256 64.955991699187294 65.137692334479297 65.319981951530792 65.502864381125903 65.686343491544235 65.870423189051905 66.055107418400539 66.240400163334471 66.426305447106429 66.612827333001576 66.799969924870453 66.987737367670732 67.176133848018196 67.365163594746591 67.554830879477436 67.554839847909932 67.745149016033025 67.936104396297921 68.127710392205955 68.319971452422692 68.512892071397729 68.706476789995122 68.90073019613466 69.095656925444359 69.291261661924167 69.487549138621318 69.684524138317514 69.882191494228252 70.080556090714325 70.279622864006072 70.479396802940315 70.679882949710745 70.679887932877719 70.881091401659106 71.08301732593084 71.285670912594981 71.489057425048216 71.693182184002112 71.898050568318453 72.103668015859469 72.310040024354038 72.517172152279684 72.725070019760935 72.933739309484238 73.143185767630015 73.353415204822113 73.564433497095123 73.776246586879751 73.988855513909627 74.202276277736161 74.416510074735982 74.631563123156567 74.847441712857076 75.064152206412118 75.281701040236968 75.500094725734598 75.719339850465076 75.939443079337977 76.160411155827873 76.382250903214256 76.604969225845579 76.828573110428849 77.053069627344527 77.278465931988137 77.504769266138652 77.50477535333215 77.731993071192676 77.960132567081601 78.18920135042147 78.419207022775382 78.650157279360684 78.88205991059381 79.114922803667156 79.348753944158503 79.583561417674332 79.81935341152743 80.05613821644981 80.293924228342036 80.532719950059331 80.772533993236109 81.013375080149402 81.255244976479062 81.498166739223549 81.742142395367438 81.987181129206732 82.233292245619737 82.480485172187159 82.728769461359136 82.978154792670125 83.228650975003319 83.480267948905549 83.733015788954361 83.98690470617845 84.241945050532919 84.498147313431048 84.755522130333858 85.014080283399522 85.273832704193381 85.53479055515551 85.796964918029957 86.060367267833769 86.325009162149883 86.59090232249963 86.858058637458086 87.126490165843677 87.396209139984279 87.667227969061955 87.939559242538763 88.213215733665876 88.488210403078597 88.764556402479457 89.042267078412578 89.321355976131372 89.60183684356312 89.601842857502547 89.883729679532479 90.167036591813115 90.451777975091943 90.737968429671682 91.025622779902449 91.314756078789571 91.605383612720217 91.897520906313034 92.191183727394261 92.48638809210459 92.783150270140624 93.081486790135372 93.381414445182429 93.682950298508089 93.986111689296266 94.290916238671471 94.290919217882646 94.597384851335747 94.905529756377632 95.215372437512144 95.526931706800198 95.840226690713649 96.15527683718075 96.472101922830547 96.790722060442164 97.111157706606591 97.433429669607662 97.757559117530477 98.083567586604701 98.411476989791225 98.741309625620403 99.073088187291305 99.40682668090021 99.742566745213594 100.08032327742153 100.42012064592467 100.76198366353729 101.10593759836006 101.45200818498722 101.80022163606095 102.15060465418524 102.50318444421372 102.85798872592481 103.21504574709959 103.57438429701705 103.93603372038363 104.30002393171345 104.66638543017713 105.03514931493696 105.03517826604032 105.40637644382129 105.78004107264803 106.15620514888616 106.5349023355046 106.91616698015309 107.30003413385698 107.68653957035441 108.07571980610268 108.46761212098143 108.86225457972257 109.25968605409744 109.65994624589349 110.00000000000001 7.3137027448317582 7.4130481057307271 7.5124666310808239 7.6119584287277258 7.7115236067556916 7.8111622734883088 7.9108745374892466 8.0106605075628767 8.1105202927550444 8.2104540023537549 8.310461745889949 8.4105436331381362 8.5106997741171586 8.6109302790909652 8.7112352585692481 8.8116148233082221 8.9120690843113994 9.0125981528302361 9.113202140364919 9.2138811586651492 9.3146353197308063 9.4154647358127246 9.5163695194135052 9.6173497832881658 9.7184056404449688 9.8195372041461386 9.9207445879086897 10.022027905505102 10.123387270964127 10.224822798571614 10.326334602871183 10.427922798665046 10.52958750101484 10.63132882524231 10.733146886930143 10.835041801922802 10.937013686327219 11.039062656513646 11.141188829116489 11.243392321035016 11.345673249434226 11.448031731745621 11.550467885668077 11.652981829168564 11.755573680483009 11.858243558117156 11.960991580847294 12.063817867721141 12.1667225380587 12.269705711453007 12.372767507771012 12.475908047154457 12.579127450020625 12.682425837063253 12.785803329253337 12.889260047840047 12.992796114351496 13.096411650595627 13.200106778661134 13.303881620918226 13.407736300019542 13.511670938901059 13.615685660782884 13.719780589170171 13.823955847854052 13.928211560912413 14.032547852710863 14.136964847903581 14.24146267143427 14.346041448536972 14.450701304737002 14.555442365851906 14.660264757992273 14.765168607562693 14.870154041262726 14.975221186087712 15.080370169329745 15.185601118578656 15.290914161722831 15.396309426950204 15.50178704274923 15.607347137909741 15.71298984152393 15.818715282987345 15.924523591999744 16.030414898566125 16.136389332997638 16.242447025912611 16.348588108237436 16.454812711207573 16.56112096636857 16.667513005576961 16.773988961001269 16.880548965123065 16.987193150737845 17.093921650956077 17.200734599204239 17.307632129225745 17.414614375081982 17.521681471153311 17.628833552140133 17.736070753063814 17.843393209267752 17.950801056418452 18.058294430506457 18.165873467847426 18.273538305083225 18.381289079182871 18.489125927443624 18.597048987492084 18.70505839728515 18.813154295111147 18.921336819590838 19.029606109678589 19.137962304663301 19.246405544169569 19.354935968158792 19.463553716930164 19.572258931121816 19.681051751711941 19.789932320019808 19.898900777706913 20.007957266778131 20.11710192958272 20.22633490881551 20.33565634751799 20.445066389079493 20.554565177238217 20.664152856082477 20.773829570051735 20.883595463937816 20.993450682885999 21.103395372396271 21.213429678324339 21.32355374688288 21.433767724642735 21.544071758533985 21.654465995847175 21.764950584234551 21.875525671711138 21.986191406655969 22.096947937813368 22.207795414293994 22.318733985576163 22.429763801506994 22.540885012303697 22.6520977685547 22.763402221220915 22.874798521637015 22.986286821512586 23.097867272933389 23.209540028362682 23.321305240642356 23.43316306299424 23.54511364902141 23.657157152709367 23.76929372842736 23.881523530929634 23.993846715356778 24.106263437236915 24.218773852487047 24.331378117414381 24.444076388717566 24.556868823488017 24.669755579211301 24.782736813768363 24.895812685436869 25.00898335289261 25.122248975210749 25.235609711867191 25.349065722739937 25.462617168110473 25.576264208665041 25.69000700549611 25.803845720103634 25.917780514396526 26.031811550693948 26.145938991726823 26.260163000639096 26.374483740989191 26.488901376751461 26.603416072317515 26.718027992497685 26.832737302522421 26.947544168043791 27.062448755136792 27.177451230300935 27.292551760461574 27.407750512971404 27.523047655611929 27.638443356594959 27.753937784563998 27.869531108595773 27.985223498201762 28.101015123329599 28.216906154364619 28.332896762131341 28.448987117895054 28.565177393363197 28.681467760687031 28.797858392463048 28.914349461734574 29.030941141993285 29.147633607180811 29.264427031690197 29.381321590367573 29.498317458513636 29.615414811885273 29.732613826697122 29.849914679623229 29.967317547798544 30.08482260882057 30.20243004075104 30.320140022117418 30.437952731914617 30.555868349606559 30.673887055127928 30.792009028885662 30.910234451760772 31.028563505109858 31.146996370766871 31.265533231044731 31.384174268737112 31.502919667119993 31.621769609953436 31.740724281483331 31.859783866443014 31.978948550055041 32.098218518032908 32.217593956582839 32.33707505240541 32.456661992697434 32.576354965153627 32.696154157968422 32.8160597598377 32.936071959960671 33.056190948041532 33.176416914291352 33.296750049429889 33.417190544687344 33.537738591806217 33.658394383043152 33.779158111170773 33.900029969479483 34.021010151779414 34.142098852402192 34.263296266202865 34.384602588561762 34.506018015386445 34.627542743113494 34.749176968710529 34.870920889678047 34.992774704051364 35.114738610402554 35.236812807842455 35.358997496022482 35.481292875136674 35.603699145923699 35.726216509668731 35.8488451682055 35.971585323918269 36.094437179743878 36.217400939173665 36.340476806255609 36.463664985596239 36.586965682362766 36.710379102285074 36.833905451657856 36.95754493734259 37.081297766769666 37.205164147940494 37.329144289429564 37.453238400386539 37.577446690538423 37.701769370191684 37.826206650234326 37.950758742138134 38.075425857960724 38.200208210347782 38.325106012535215 38.450119478351368 38.575248822219152 38.700494259158297 38.825856004787624 38.951334275327156 39.076929287600407 39.20264125903666 39.328470407673215 39.454416952157601 39.580481111749961 39.706663106325216 39.832963156375456 39.959381483012216 40.085918307968853 40.212573853602784 40.339348342897871 40.466241999466853 40.59325504755359 40.720387712035524 40.847640218425994 40.975012792876768 41.102505662180278 41.230119053772221 41.357853195733838 41.485708316794458 41.613684646333908 41.741782414385035 41.870001851636111 41.99834318943342 42.126806659783647 42.255392495356503 42.384100929487154 42.512932196178895 42.641886530105559 42.770964166614149 42.900165341727465 43.029490292146569 43.158939255253514 43.288512469113833 43.41821017247932 43.548032604790521 43.677980006179503 43.808052617472413 43.938250680192233 44.068574436561427 44.199024129504714 44.329600002651688 44.460302300339592 44.591131267616113 44.722087150242054 44.853170194694123 44.98438064816775 45.115718758579924 45.247184774571828 45.378778945511911 45.510501521498504 45.642352753362808 45.77433289267168 45.906442191730619 46.038680903586517 46.171049282030673 46.30354758160172 46.436176057588447 46.568934966032899 46.701824563733197 46.834845108246704 46.967996857892786 47.101280071756058 47.234695009689226 47.368241932316216 47.50192110103518 47.635732778021669 47.769677226231572 47.903754709404346 48.037965492066043 48.17230983953246 48.306788017912332 48.44140029411043 48.576146935830806 48.711028211579958 48.846044390670002 48.981195743221939 49.116482540168889 49.25190505325935 49.387463555060521 49.523158318961464 49.658989619176587 49.794957730748798 49.931062929552958 50.067305492299219 50.203685696536333 50.340203820655169 50.476860143892054 50.613654946332133 50.750588508912912 50.887661113427683 51.024873042529009 51.162224579732253 51.299716009418987 51.437347616840661 51.575119688122072 51.713032510264924 51.851086371151474 51.989281559548068 52.127618365108837 52.266097078379332 52.404717990800101 52.543481394710433 52.682387583352089 52.821436850872907 52.960629492330732 53.099965803696946 53.239446081860429 53.379070624631225 53.518839730744432 53.658753699864 53.798812832586648 53.939017430445631 54.079367795914763 54.219864232412206 54.360507044304498 54.501296536910452 54.642233016505173 54.783316790324065 54.92454816656678 55.065927454401347 55.207454963968146 55.349131006384049 55.490955893746509 55.632929939137703 55.775053456628605 55.917326761283292 56.059750169162967 56.202323997330303 56.345048563853616 56.487924187811117 56.63095118929526 56.774129889416997 56.917460610310066 57.060943675135384 57.204579408085429 57.348368134388579 57.492310180313652 57.636405873174176 57.780655541333019 57.925059514206758 58.069618122270242 58.214331697061134 58.359200571184445 58.504225078317191 58.649405553212944 58.794742331706438 58.940235750718294 59.085886148259696 59.231693863437052 59.377659236456836 59.523782608630206 59.670064322377954 59.816504721235169 59.963104149856164 60.109862954019341 60.256781480632036 60.403860077735501 60.551099094509844 60.698498881278937 60.846059789515465 60.993782171845957 61.141666382055817 61.289712775094493 61.43792170708042 61.586293535306375 61.734828618244435 61.883527315551319 62.032389988073511 62.181416997852672 62.330608708130704 62.479965483355265 62.62948768918497 62.779175692494817 62.929029861381601 63.079050565169297 63.229238174414611 63.379593060912413 63.530115597701197 63.680806159068744 63.831665120557652 63.982692858970935 64.133889752377755 64.285256180118964 64.436792522812993 64.588499162361387 64.74037648195474 64.892424866078414 65.044644700518461 65.197036372367393 65.349600270030209 65.502336783230248 65.655246303015105 65.808329221762818 65.961585933187735 66.11501683234674 66.268622315645189 66.422402780843242 66.576358627061893 66.730490254789274 66.884798065886855 67.039282463595725 67.193943852543015 67.34878263874819 67.503799229629323 67.658994034009737 67.81436746212438 67.969919925626243 68.125651837593097 68.281563612533915 68.437655666395557 68.593928416569426 68.750382281898126 68.907017682682223 69.06383504068711 69.220834779149584 69.378017322785041 69.535383097793996 69.692932531869303 69.850666054203003 70.008584095493347 70.166687087951885 70.324975465310573 70.483449662828832 70.642110117300831 70.800957267062614 70.959991551999408 71.119213413553041 71.278623294729059 71.438221640104373 71.598008895834482 71.757985509661111 71.918151930919649 72.078508610546763 72.239056001088017 72.399794556705558 72.560724733185737 72.721846987946904 72.883161780047274 73.044669570192681 73.206370820744567 73.368265995727796 73.5303555608388 73.692639983453489 73.855119732635373 74.017795279143741 74.180667095441748 74.343735655704819 74.507001435828755 74.67046491343811 74.834126567894671 74.997986880305746 75.162046333532743 75.326305412199773 75.490764602702029 75.655424393214645 75.820285273701273 75.985347735922858 76.150612273446399 76.316079381653907 76.481749557751201 76.647623300776985 76.813701111611749 76.979983492986918 77.146470949493974 77.313163987593583 77.480063115624972 77.647168843815095 77.814481684288083 77.982002151074568 78.149730760121287 78.317668029300435 78.485814478419499 78.654170629230677 78.822737005440786 78.991514132720852 79.160502538716088 79.329702753055741 79.499115307363013 79.668740735265203 79.838579572403688 80.008632356444025 80.178899627086338 80.349381926075395 80.520079797211082 80.690993786358874 80.862124441460026 81.033472312542486 81.205037951731171 81.376821913258865 81.54882475347685 81.721047030865691 81.89348930604632 82.066152141790738 82.239036103033143 82.412141756881041 82.585469672626331 82.759020421756588 82.932794577966476 83.106792717168872 83.281015417506609 83.455463259363739 83.630136825377306 83.805036700448923 83.98016347175664 84.155517728766625 84.331100063245259 84.506911069270885 84.682951343246032 84.859221483909494 85.035722092348564 85.212453772011386 85.389417128719202 85.566612770678972 85.744041308495724 85.921703355185414 86.099599526187362 86.277730439377379 86.456096715080264 86.634698976083115 86.813537847648121 86.992613957525791 87.171927935968242 87.351480415742358 87.531272032143349 87.711303423008147 87.891575228728954 88.072088092266995 88.252842659166191 88.433839577567099 88.61507949822078 88.796563074502899 88.978290962427835 89.160263820662863 89.342482310542536 89.524947096083068 89.707658843996867 89.890618223707207 90.073825907362902 90.257282569853032 90.440988888821991 90.624945544684437 90.809153220640425 90.993612602690689 91.178324379651855 91.363289243172005 91.548507887746069 91.733981010731625 91.919709312364517 92.105693495774787 92.291934267002702 92.47843233501473 92.665188411719754 92.852203211985426 93.039477453654555 93.227011857561592 93.414807147549453 93.602864050486033 93.791183296281261 93.979765617904064 94.168611751399439 94.357722435905686 94.54709841367189 94.736740430075216 94.926649233638713 95.116825576048853 95.307270212173435 95.497983900079674 95.688967401052167 95.88022147961118 96.071746903531107 96.263544443858734 96.455614874932095 96.647958974399089 96.840577523236362 97.033471305768572 97.226641109687137 97.420087726069966 97.613811949400528 97.807814577587706 98.002096411985349 98.196658257412196 98.3915009221719 98.586625218073195 98.782031960450027 98.977721968182195 99.173696063715852 99.369955073084185 99.566499825928531 99.763331155519083 99.960449898776389 100.15785689629254 100.35555299235271 100.55353903495683 100.75181587584142 100.95038437050157 101.14924537821305 101.34839976205477 101.54784838893102 101.7475921295942 101.94763185866782 102.14796845466918 102.34860280003271 102.54953578113326 102.75076828830954 102.95230121588783 103.15413546220583 103.35627192963