<?xml version="1.0"?><VTKFile type="PolyData" version="0.1" byte_order="LittleEndian">
    <PolyData>
        <Piece NumberOfLines="17" NumberOfPoints="234">
            <PointData Scalars="Pointdata">
                <DataArray type="Float32" Name="time" NumberOfComponents="1" format="ascii">0 0.067765318632130409 0.14199382675119482 0.22404963556397914 0.31578022548057888 0.41977579113714075 0.5398298610445581 0.68182368779575309 0.85561008652513704 1.0796597220891162 1.3954399475696955 1.9352698086142532 5.3798279455891747 5.3798279455891747 6.0920034730685355 6.9246023864020945 7.9268063177899428 9.1858621110259993 10.880537600293398 13.482472373952117 19.332262133575803 39.46224150011183 0 0.025157564413720145 0.050635615968579795 0.076442425640395481 0.10258658877510116 0.12907704227514236 0.15592308293942361 0.18313438705098101 0.21072103131565256 0.23869351526513249 0.26706278524904525 0.29584026015324438 0.32503785899554988 0.35466803056583107 0.38474378529491227 0.4091343314825488 0.44004684795593224 0.47144466704213966 0.49692271859699921 0.52923359904156975 0.56207505946622471 0.58874212120515512 0.62258387618182953 0.6570081339440722 0.68498061789355202 0.72050553057323274 0.7566728814398237 0.7860851762192147 0.82346944224351959 0.86156583218490879 0.89257420525683928 0.93202321595239634 0.97226602235123838 1.0050536419025913 1.046808811945702 1.0894543508833445 1.1242378363070826 1.1685855512957268 1.2139389686377862 1.2509770641722613 1.298260590286342 1.3466891065275313 1.3862943611198906 1.4369299770884703 1.4888809498949918 1.5314357467895612 1.5859350316843124 1.6419611041396602 1.6879401405890577 1.7469414693824532 1.8077364237511957 1.8577390281620296 1.9220532514310926 1.9885045466877334 2.043302495063962 2.1139812279545795 2.1872494943141403 2.2478601933047981 2.3263016196113604 2.4079456086518709 2.4757487120032331 2.5638686915912943 2.6560509059918278 2.7329834676474198 2.833507137209196 2.9393519401178816 3.0282554652595484 3.145247878622766 3.2695114408367778 3.3747989078076217 3.5147160850214414 3.6651629274966155 3.7942399697717577 3.9682627237510162 4.1588830833596662 4.3256463012377662 4.5557849608073413 4.8158912173037347 5.0514572886165006 5.3912553622072927 5.800844187499318 6.2021855784236131 6.8530303792928651 7.8240460108562457 9.210340371976093 13.815510557964272 0.32503785899554988 0.50307971582824673 0.70861395559792439 0.95170936465653067 1.2492340997421436 1.6328101963445181 2.1734303404887374 3.0976265812353305 9.5353782309717303 0.32503785899554988 0.50307971582824673 0.70861395559792439 0.95170936465653067 1.2492340997421436 1.6328101963445181 2.1734303404887374 3.0976265812353305 9.5353782309717303 0.68498061789355202 0.86302247472624882 1.0685567144959265 1.3116521235545329 1.6091768586401458 1.9927529552425203 2.5333730993867394 3.4575693401333325 9.8953209898697327 0.68498061789355202 0.86302247472624882 1.0685567144959265 1.3116521235545329 1.6091768586401458 1.9927529552425203 2.5333730993867394 3.4575693401333325 9.8953209898697327 1.1242378363070826 1.3022796931397795 1.5078139329094571 1.7509093419680632 2.0484340770536762 2.4320101736560509 2.9726303178002702 3.8968265585468633 10.334578208283263 1.1242378363070826 1.3022796931397795 1.5078139329094571 1.7509093419680632 2.0484340770536762 2.4320101736560509 2.9726303178002702 3.8968265585468633 10.334578208283263 1.6879401405890577 1.8659819974217546 2.0715162371914322 2.3146116462500386 2.6121363813356515 2.9957124779380262 3.5363326220822451 4.4605288628288386 10.898280512565238 1.6879401405890577 1.8659819974217546 2.0715162371914322 2.3146116462500386 2.6121363813356515 2.9957124779380262 3.5363326220822451 4.4605288628288386 10.898280512565238 2.4757487120032331 2.6537905688359298 2.8593248086056078 3.1024202176642137 3.3999449527498267 3.7835210493522013 4.3241411934964207 5.2483374342430142 11.686089083979413 2.4757487120032331 2.6537905688359298 2.8593248086056078 3.1024202176642137 3.3999449527498267 3.7835210493522013 4.3241411934964207 5.2483374342430142 11.686089083979413 3.7942399697717577 3.9722818266044544 4.1778160663741319 4.4209114754327388 4.7184362105183517 5.1020123071207255 5.6426324512649453 6.5668286920115388 13.004580341747937 3.7942399697717577 3.9722818266044544 4.1778160663741319 4.4209114754327388 4.7184362105183517 5.1020123071207255 5.6426324512649453 6.5668286920115388 13.004580341747937 9.210340371976093 9.3883822288087906 9.5939164685784668 9.8370118776370745 10.134536612722687 10.518112709325061 11.05873285346928 11.982929094215873 18.420680743952275 9.210340371976093 9.3883822288087906 9.5939164685784668 9.8370118776370745 10.134536612722687 10.518112709325061 11.05873285346928 11.982929094215873 18.420680743952275 </DataArray>
            </PointData>
            <CellData Scalars="CellData">
                <DataArray type="Float32" Name="organtype" NumberOfComponents="1" format="ascii">2 2 4 8 8 8 8 8 8 8 8 8 8 8 8 8 8 </DataArray>
                <DataArray type="Float32" Name="id" NumberOfComponents="1" format="ascii">1 4 2 5 6 9 10 13 14 17 18 21 22 25 26 29 30 </DataArray>
                <DataArray type="Float32" Name="emergencetime" NumberOfComponents="1" format="ascii">0.067765318632130409 6.0920034730685355 0.025157564413720145 0.50307971582824673 0.50307971582824673 0.86302247472624882 0.86302247472624882 1.3022796931397795 1.3022796931397795 1.8659819974217546 1.8659819974217546 2.6537905688359298 2.6537905688359298 3.9722818266044544 3.9722818266044544 9.3883822288087906 9.3883822288087906 </DataArray>
                <DataArray type="Float32" Name="creationtime" NumberOfComponents="1" format="ascii">0 5.3798279455891747 0 0.32503785899554988 0.32503785899554988 0.68498061789355202 0.68498061789355202 1.1242378363070826 1.1242378363070826 1.6879401405890577 1.6879401405890577 2.4757487120032331 2.4757487120032331 3.7942399697717577 3.7942399697717577 9.210340371976093 9.210340371976093 </DataArray>
                <DataArray type="Float32" Name="age" NumberOfComponents="1" format="ascii">70 64.62017205441083 70 69.674962141004457 69.674962141004457 69.315019382106442 69.315019382106442 68.875762163692912 68.875762163692912 68.312059859410937 68.312059859410937 67.524251287996762 67.524251287996762 66.205760030228248 66.205760030228248 60.789659628023905 60.789659628023905 </DataArray>
                <DataArray type="Float32" Name="subtype" NumberOfComponents="1" format="ascii">1 2 1 2 2 2 2 2 2 2 2 2 2 2 2 2 2 </DataArray>
                <DataArray type="Float32" Name="order" NumberOfComponents="1" format="ascii">1 2 1 2 2 2 2 2 2 2 2 2 2 2 2 2 2 </DataArray>
                <DataArray type="Float32" Name="radius" NumberOfComponents="1" format="ascii">0.20000000000000001 0.012500000000000001 0.20000000000000001 0.02 0.02 0.02 0.02 0.02 0.02 0.02 0.02 0.02 0.02 0.02 0.02 0.02 0.02 </DataArray>
            </CellData>
            <Points>
                <DataArray type="Float32" Name="Coordinates" NumberOfComponents="3" format="ascii">0 0 -3 0.0029559069080913767 -0.00013371115859146272 -3.2499824888580733 -0.0004405684921906434 -0.001786168832637221 -3.499953953906568 0.017577302887947652 -0.02900467609176335 -3.7478138118374433 0.0333630331883287 -0.043949768592720685 -3.9968669285194505 0.10045857438509688 -0.067774922927578349 -4.2365136484478336 0.16351481839687967 -0.098587304679955343 -4.4764605326157101 0.21595767030142152 -0.13759475842233942 -4.7177656627655971 0.25515025474556163 -0.15769106833896046 -4.9638552392460404 0.32963696035777273 -0.083951996604388554 -5.1908228139935435 0.40706820743551986 -0.01423818402056401 -5.4180768267436203 0.48074564856448837 0.033556946518491552 -5.652143612438306 0.55260796088893827 0.070368369740165915 -5.8887460790099331 0.0333630331883287 -0.043949768592720685 -3.9968669285194505 0.2554272250816737 -0.14466596214297139 -4.0520370566279125 0.47590058224878606 -0.22921091716068104 -4.1341567823977687 0.70631006782237882 -0.29092741910848635 -4.2090069149630409 0.93575255883914199 -0.38824009820398175 -4.2286636136502489 1.1483267301753226 -0.51474853362574291 -4.2648276489321999 1.3612480081918246 -0.60179564739116398 -4.3627425576689669 1.5460813449841706 -0.68868086730213107 -4.5069215997355236 1.628569213660187 -0.73627197947850875 -4.5619670194159898 0 0 -3 0 0 -2.75 0 0 -2.5 0 0 -2.25 0 0 -2 0 0 -1.75 0 0 -1.5 0 0 -1.25 0 0 -1 0 0 -0.75 0 0 -0.5 0 0 -0.25 0 0 0 0 0 0.25 0 0 0.5 0 0 0.70000000000000018 0 0 0.95000000000000018 0 0 1.2000000000000002 0 0 1.4000000000000004 0 0 1.6500000000000004 0 0 1.9000000000000004 0 0 2.1000000000000005 0 0 2.3500000000000005 0 0 2.6000000000000005 0 0 2.8000000000000007 0 0 3.0500000000000007 0 0 3.3000000000000007 0 0 3.5000000000000009 0 0 3.7500000000000009 0 0 4.0000000000000009 0 0 4.2000000000000011 0 0 4.4500000000000011 0 0 4.7000000000000011 0 0 4.9000000000000012 0 0 5.1500000000000012 0 0 5.4000000000000012 0 0 5.6000000000000014 0 0 5.8500000000000014 0 0 6.1000000000000014 0 0 6.3000000000000007 0 0 6.5500000000000007 0 0 6.8000000000000007 0 0 7 0 0 7.25 0 0 7.5 0 0 7.6999999999999993 0 0 7.9499999999999993 0 0 8.1999999999999993 0 0 8.3999999999999986 0 0 8.6499999999999986 0 0 8.8999999999999986 0 0 9.0999999999999979 0 0 9.3499999999999979 0 0 9.5999999999999979 0 0 9.7999999999999972 0 0 10.049999999999997 0 0 10.299999999999997 0 0 10.499999999999996 0 0 10.749999999999996 0 0 10.999999999999996 0 0 11.199999999999996 0 0 11.449999999999996 0 0 11.699999999999996 0 0 11.899999999999995 0 0 12.149999999999995 0 0 12.399999999999995 0 0 12.599999999999994 0 0 12.849999999999994 0 0 13.099999999999994 0 0 13.299999999999994 0 0 13.549999999999994 0 0 13.799999999999994 0 0 13.999999999999993 0 0 14.249999999999993 0 0 14.499999999999993 0 0 14.699999999999992 0 0 14.949999999999992 0 0 15.199999999999992 0 0 15.399999999999991 0 0 15.649999999999991 0 0 15.899999999999991 0 0 16.099999999999991 0 0 16.349999999999991 0 0 16.599999999999991 0 0 16.79999999999999 0 0 16.999999999999993 0 0 0 0.20225424859373686 -4.4587458245821351e-14 0.14694631307311828 0.40450849718747373 -8.9174916491642702e-14 0.29389262614623657 0.60676274578121059 -1.3376237473746405e-13 0.44083893921935485 0.80901699437494745 -1.7834983298328538e-13 0.58778525229247314 1.0112712429686843 -2.2293729122910671e-13 0.73473156536559148 1.2135254915624212 -2.6752474947492804e-13 0.88167787843870982 1.415779740156158 -3.1211220772074937e-13 1.0286241915118282 1.6180339887498949 -3.5669966596657071e-13 1.1755705045849465 0 0 0 -0.20225424859373686 -2.2213056260790413e-14 0.14694631307311828 -0.40450849718747373 -4.4426112521580826e-14 0.29389262614623657 -0.60676274578121059 -6.6639168782371236e-14 0.44083893921935485 -0.80901699437494745 -8.8852225043161639e-14 0.58778525229247314 -1.0112712429686843 -1.1106528130395204e-13 0.73473156536559148 -1.2135254915624212 -1.3327833756474245e-13 0.88167787843870982 -1.415779740156158 -1.5549139382553286e-13 1.0286241915118282 -1.6180339887498949 -1.7770445008632328e-13 1.1755705045849465 0 0 2.8000000000000007 0.20225424859373686 -9.4935596739666222e-14 2.9469463130731191 0.40450849718747373 -1.8987119347933244e-13 3.0938926261462374 0.60676274578121059 -2.8480679021899865e-13 3.2408389392193557 0.80901699437494745 -3.7974238695866484e-13 3.3877852522924741 1.0112712429686843 -4.7467798369833102e-13 3.5347315653655924 1.2135254915624212 -5.696135804379972e-13 3.6816778784387107 1.415779740156158 -6.6454917717766339e-13 3.8286241915118291 1.6180339887498949 -7.5948477391732957e-13 3.9755705045849474 0 0 2.8000000000000007 -0.20225424859373686 2.8135082233054461e-14 2.9469463130731191 -0.40450849718747373 5.6270164466108922e-14 3.0938926261462374 -0.60676274578121059 8.4405246699163382e-14 3.2408389392193557 -0.80901699437494745 1.1254032893221784e-13 3.3877852522924741 -1.0112712429686843 1.406754111652723e-13 3.5347315653655924 -1.2135254915624212 1.6881049339832676e-13 3.6816778784387107 -1.415779740156158 1.9694557563138123e-13 3.8286241915118291 -1.6180339887498949 2.2508065786443569e-13 3.9755705045849474 0 0 5.6000000000000014 0.20225424859373686 3.8665432273557306e-14 5.7469463130731198 0.40450849718747373 7.7330864547114613e-14 5.8938926261462381 0.60676274578121059 1.1599629682067191e-13 6.0408389392193564 0.80901699437494745 1.546617290942292e-13 6.1877852522924748 1.0112712429686843 1.9332716136778649e-13 6.3347315653655931 1.2135254915624212 2.3199259364134378e-13 6.4816778784387115 1.415779740156158 2.7065802591490109e-13 6.6286241915118298 1.6180339887498949 3.093234581884584e-13 6.7755705045849481 0 0 5.6000000000000014 -0.20225424859373686 7.8483220726899325e-14 5.7469463130731198 -0.40450849718747373 1.5696644145379865e-13 5.8938926261462381 -0.60676274578121059 2.3544966218069796e-13 6.0408389392193564 -0.80901699437494745 3.1393288290759725e-13 6.1877852522924748 -1.0112712429686843 3.9241610363449654e-13 6.3347315653655931 -1.2135254915624212 4.7089932436139582e-13 6.4816778784387115 -1.415779740156158 5.4938254508829511e-13 6.6286241915118298 -1.6180339887498949 6.278657658151944e-13 6.7755705045849481 0 0 8.3999999999999986 0.20225424859373686 -1.1682706220287563e-14 8.546946313073116 0.40450849718747373 -2.3365412440575125e-14 8.6938926261462353 0.60676274578121059 -3.5048118660862686e-14 8.8408389392193527 0.80901699437494745 -4.6730824881150244e-14 8.9877852522924719 1.0112712429686843 -5.8413531101437796e-14 9.1347315653655894 1.2135254915624212 -7.0096237321725347e-14 9.2816778784387086 1.415779740156158 -8.1778943542012899e-14 9.4286241915118261 1.6180339887498949 -9.3461649762300451e-14 9.5755705045849453 0 0 8.3999999999999986 -0.20225424859373686 -5.5117808286324197e-14 8.546946313073116 -0.40450849718747373 -1.1023561657264839e-13 8.6938926261462353 -0.60676274578121059 -1.6535342485897258e-13 8.8408389392193527 -0.80901699437494745 -2.2047123314529676e-13 8.9877852522924719 -1.0112712429686843 -2.7558904143162095e-13 9.1347315653655894 -1.2135254915624212 -3.3070684971794515e-13 9.2816778784387086 -1.415779740156158 -3.8582465800426936e-13 9.4286241915118261 -1.6180339887498949 -4.4094246629059357e-13 9.5755705045849453 0 0 11.199999999999996 0.20225424859373686 -6.2030844714132428e-14 11.346946313073113 0.40450849718747373 -1.2406168942826486e-13 11.493892626146232 0.60676274578121059 -1.8609253414239727e-13 11.64083893921935 0.80901699437494745 -2.4812337885652966e-13 11.787785252292469 1.0112712429686843 -3.1015422357066205e-13 11.934731565365587 1.2135254915624212 -3.7218506828479444e-13 12.081677878438706 1.415779740156158 -4.3421591299892684e-13 12.228624191511823 1.6180339887498949 -4.9624675771305923e-13 12.375570504584942 0 0 11.199999999999996 -0.20225424859373686 -4.7696697924793315e-15 11.346946313073113 -0.40450849718747373 -9.5393395849586631e-15 11.493892626146232 -0.60676274578121059 -1.4309009377437994e-14 11.64083893921935 -0.80901699437494745 -1.9078679169917323e-14 11.787785252292469 -1.0112712429686843 -2.3848348962396652e-14 11.934731565365587 -1.2135254915624212 -2.8618018754875981e-14 12.081677878438706 -1.415779740156158 -3.3387688547355314e-14 12.228624191511823 -1.6180339887498949 -3.8157358339834646e-14 12.375570504584942 0 0 13.999999999999993 0.20225424859373686 -1.1237898320797729e-13 14.14694631307311 0.40450849718747373 -2.2475796641595459e-13 14.29389262614623 0.60676274578121059 -3.3713694962393188e-13 14.440838939219347 0.80901699437494745 -4.4951593283190917e-13 14.587785252292466 1.0112712429686843 -5.6189491603988646e-13 14.734731565365584 1.2135254915624212 -6.7427389924786376e-13 14.881677878438703 1.415779740156158 -7.8665288245584105e-13 15.02862419151182 1.6180339887498949 -8.9903186566381834e-13 15.17557050458494 0 0 13.999999999999993 -0.20225424859373686 4.5578468701365538e-14 14.14694631307311 -0.40450849718747373 9.1156937402731076e-14 14.29389262614623 -0.60676274578121059 1.3673540610409661e-13 14.440838939219347 -0.80901699437494745 1.8231387480546213e-13 14.587785252292466 -1.0112712429686843 2.2789234350682767e-13 14.734731565365584 -1.2135254915624212 2.7347081220819322e-13 14.881677878438703 -1.415779740156158 3.1904928090955876e-13 15.02862419151182 -1.6180339887498949 3.6462774961092431e-13 15.17557050458494 0 0 16.79999999999999 0.20225424859373686 2.1222045805246226e-14 16.946946313073109 0.40450849718747373 4.2444091610492451e-14 17.093892626146225 0.60676274578121059 6.3666137415738674e-14 17.240838939219344 0.80901699437494745 8.488818322098489e-14 17.387785252292463 1.0112712429686843 1.0611022902623111e-13 17.534731565365583 1.2135254915624212 1.2733227483147732e-13 17.681677878438698 1.415779740156158 1.4855432063672353e-13 17.828624191511818 1.6180339887498949 1.6977636644196973e-13 17.975570504584937 0 0 16.79999999999999 -0.20225424859373686 9.5926607195210396e-14 16.946946313073109 -0.40450849718747373 1.9185321439042079e-13 17.093892626146225 -0.60676274578121059 2.8777982158563119e-13 17.240838939219344 -0.80901699437494745 3.8370642878084158e-13 17.387785252292463 -1.0112712429686843 4.7963303597605198e-13 17.534731565365583 -1.2135254915624212 5.7555964317126238e-13 17.681677878438698 -1.415779740156158 6.7148625036647277e-13 17.828624191511818 -1.6180339887498949 7.6741285756168317e-13 17.975570504584937 </DataArray>
            </Points>
            <Lines>
                <DataArray type="Float32" Name="connectivity" NumberOfComponents="1" format="ascii">0 1 2 3 4 5 6 7 8 9 10 11 12 13 14 15 16 17 18 19 20 21 22 23 24 25 26 27 28 29 30 31 32 33 34 35 36 37 38 39 40 41 42 43 44 45 46 47 48 49 50 51 52 53 54 55 56 57 58 59 60 61 62 63 64 65 66 67 68 69 70 71 72 73 74 75 76 77 78 79 80 81 82 83 84 85 86 87 88 89 90 91 92 93 94 95 96 97 98 99 100 101 102 103 104 105 106 107 108 109 110 111 112 113 114 115 116 117 118 119 120 121 122 123 124 125 126 127 128 129 130 131 132 133 134 135 136 137 138 139 140 141 142 143 144 145 146 147 148 149 150 151 152 153 154 155 156 157 158 159 160 161 162 163 164 165 166 167 168 169 170 171 172 173 174 175 176 177 178 179 180 181 182 183 184 185 186 187 188 189 190 191 192 193 194 195 196 197 198 199 200 201 202 203 204 205 206 207 208 209 210 211 212 213 214 215 216 217 218 219 220 221 222 223 224 225 226 227 228 229 230 231 232 233 </DataArray>
                <DataArray type="Float32" Name="offsets" NumberOfComponents="1" format="ascii">13 22 108 117 126 135 144 153 162 171 180 189 198 207 216 225 234 </DataArray>
            </Lines>
        </Piece>
    </PolyData>
</VTKFile>
