<?xml version="1.0"?><VTKFile type="PolyData" version="0.1" byte_order="LittleEndian">
    <PolyData>
        <Piece NumberOfLines="17" NumberOfPoints="192">
            <PointData Scalars="Pointdata">
                <DataArray type="Float32" Name="time" NumberOfComponents="1" format="ascii">0 0.05977784233409774 0.12525706009037421 0.19764097712668788 0.27855931193177708 0.37029695373363664 0.47620028905846501 0.6014573491488393 0.75475960099024209 0.95240057811693002 1.2309598900487073 1.707160179107172 4.7457093570503934 4.7457093570503934 5.4497715691024737 6.2728852679802714 7.2636717941020486 8.5083840492678995 10.183753291324063 12.756046050162901 18.539193264975918 38.43984591942538 0 0.025317807984289897 0.051293294387550578 0.072570692834835374 0.099820335282210904 0.12783337150988489 0.15082288973458366 0.18032355413128162 0.21072103131565253 0.23572233352106983 0.26787944515560119 0.30110509278392161 0.3285040669720361 0.36384343341734482 0.40047756659712525 0.43078291609245423 0.47000362924573558 0.51082562376599072 0.54472717544167215 0.58878716523570263 0.6348782724359695 0.67334455326376563 0.72360638804465394 0.7765287894989964 0.82098055206983034 0.87947675875143894 0.94160853985844517 0.99425227334386723 1.0642108619507773 1.139434283188365 1.2039728043259361 1.290984181315566 1.386294361119891 1.4696759700589421 1.5847452998437297 1.7147984280919271 1.8325814637483107 2.0024805005437076 2.2072749131897211 2.4079456086518709 2.7333680090864991 3.2188758248681997 3.9120230054281397 6.9077552789821359 0.072570692834835374 0.25061254966753221 0.45614678943720988 0.69924219849581615 0.99676693358142909 1.3803430301838036 1.9209631743280227 2.8451594150746162 9.2829110648110156 0.15082288973458366 0.32886474656728049 0.53439898633695815 0.77749439539556442 1.0750191304811774 1.4585952270835518 1.9992153712277709 2.9234116119743643 9.3611632617107645 0.23572233352106983 0.41376419035376666 0.61929843012344432 0.86239383918205059 1.1599185742676634 1.5434946708700381 2.084114815014257 3.0083110557608506 9.4460627054972495 0.3285040669720361 0.50654592380473296 0.71208016357441062 0.95517557263301689 1.2527003077186298 1.6362764043210043 2.1768965484652236 3.1010927892118167 9.5388444389482157 0.43078291609245423 0.60882477292515103 0.8143590126948288 1.057454421753435 1.3549791568390479 1.7385552534414224 2.2791753975856417 3.2033716383322348 9.6411232880686342 0.54472717544167215 0.72276903227436895 0.92830327204404672 1.1713986811026529 1.4689234161882658 1.8524995127906405 2.3931196569348594 3.317315897681453 9.7550675474178519 0.67334455326376563 0.85138641009646243 1.0569206498661401 1.3000160589247463 1.5975407940103592 1.9811168906127339 2.5217370347569528 3.4459332755035463 9.8836849252399457 0.82098055206983034 0.99902240890252714 1.2045566486722048 1.447652057730811 1.7451767928164239 2.1287528894187986 2.6693730335630175 3.593569274309611 10.03132092404601 0.99425227334386723 1.1722941301765641 1.3778283699462417 1.6209237790048481 1.918448514090461 2.3020246106928353 2.8426447548370546 3.7668409955836477 10.204592645320048 1.2039728043259361 1.382014661158633 1.5875489009283106 1.830644309986917 2.1281690450725299 2.5117451416749041 3.0523652858191235 3.9765615265657166 10.414313176302116 1.4696759700589421 1.647717826891639 1.8532520666613166 2.0963474757199227 2.3938722108055357 2.7774483074079104 3.3180684515521293 4.2422646922987228 10.680016342035122 1.8325814637483107 2.0106233205810073 2.2161575603506853 2.4592529694092913 2.7567777044949042 3.1403538010972789 3.6809739452414982 4.6051701859880918 11.04292183572449 2.4079456086518709 2.5859874654845676 2.7915217052542456 3.0346171143128515 3.3321418493984645 3.7157179460008392 4.256338090145058 5.1805343308916516 11.618285980628052 3.9120230054281397 4.0900648622608369 4.295599102030514 4.5386945110891208 4.8362192461747338 5.2197953427771075 5.7604154869213273 6.6846117276679209 13.122363377404319 </DataArray>
            </PointData>
            <CellData Scalars="CellData">
                <DataArray type="Float32" Name="organtype" NumberOfComponents="1" format="ascii">2 2 4 8 8 8 8 8 8 8 8 8 8 8 8 8 8 </DataArray>
                <DataArray type="Float32" Name="id" NumberOfComponents="1" format="ascii">1 4 2 5 7 9 11 13 15 17 19 21 23 25 27 29 31 </DataArray>
                <DataArray type="Float32" Name="emergencetime" NumberOfComponents="1" format="ascii">0.05977784233409774 5.4497715691024737 0.025317807984289897 0.25061254966753221 0.32886474656728049 0.41376419035376666 0.50654592380473296 0.60882477292515103 0.72276903227436895 0.85138641009646243 0.99902240890252714 1.1722941301765641 1.382014661158633 1.647717826891639 2.0106233205810073 2.5859874654845676 4.0900648622608369 </DataArray>
                <DataArray type="Float32" Name="creationtime" NumberOfComponents="1" format="ascii">0 4.7457093570503934 0 0.072570692834835374 0.15082288973458366 0.23572233352106983 0.3285040669720361 0.43078291609245423 0.54472717544167215 0.67334455326376563 0.82098055206983034 0.99425227334386723 1.2039728043259361 1.4696759700589421 1.8325814637483107 2.4079456086518709 3.9120230054281397 </DataArray>
                <DataArray type="Float32" Name="age" NumberOfComponents="1" format="ascii">180 175.2542906429496 180 179.92742930716517 179.84917711026543 179.76427766647893 179.67149593302796 179.56921708390755 179.45527282455834 179.32665544673623 179.17901944793016 179.00574772665612 178.79602719567407 178.53032402994106 178.16741853625169 177.59205439134814 176.08797699457185 </DataArray>
                <DataArray type="Float32" Name="subtype" NumberOfComponents="1" format="ascii">1 2 1 2 2 2 2 2 2 2 2 2 2 2 2 2 2 </DataArray>
                <DataArray type="Float32" Name="order" NumberOfComponents="1" format="ascii">1 2 1 2 2 2 2 2 2 2 2 2 2 2 2 2 2 </DataArray>
                <DataArray type="Float32" Name="radius" NumberOfComponents="1" format="ascii">0.20000000000000001 0.012500000000000001 0.20000000000000001 0.02 0.02 0.02 0.02 0.02 0.02 0.02 0.02 0.02 0.02 0.02 0.02 0.02 0.02 </DataArray>
            </CellData>
            <Points>
                <DataArray type="Float32" Name="Coordinates" NumberOfComponents="3" format="ascii">0 0 -3 -0.0041496319675321802 0.042631379066170122 -3.2463033618801225 0.026812877754360913 0.099732810358573648 -3.4877174243041673 0.062493845999171425 0.18411602868445914 -3.7203251218768805 0.10271955501472554 0.27379430729843063 -3.9501939946696769 0.14090487591446568 0.36929400383306288 -4.1780573072708433 0.13700585901323845 0.43818139788344246 -4.4183473915609603 0.067583167577600398 0.53389673317294473 -4.6386178264909583 -0.00029068790034540715 0.63077265177397135 -4.8588635895325343 0.016888816807877995 0.68917059365936351 -5.1013394543140222 0.042207338955369801 0.72152443212183803 -5.3479407551480023 0.074417752589100855 0.7562350300023658 -5.5934151196920832 0.063884427259176313 0.79725488820007073 -5.8398018488211783 0.10271955501472554 0.27379430729843063 -3.9501939946696769 0.28524084411464407 0.4426333627681357 -3.9241296056800645 0.46819481271753549 0.61069671463829067 -3.8961554188175174 0.64417053824069748 0.77479821461251952 -3.8283082248239193 0.81161229274822577 0.94967811530249502 -3.7660163378553508 0.95039931693977753 1.1569859699647356 -3.7498418112349823 1.0907287247820714 1.3629881107922746 -3.7305862855578686 1.2302930063112698 1.5696694182563855 -3.7131321036473852 1.3073099178476719 1.6480343026458355 -3.707903314875395 0 0 -3 0 0 -2.75 0 0 -2.5 0 0 -2.2999999999999998 0 0 -2.0499999999999998 0 0 -1.7999999999999998 0 0 -1.5999999999999999 0 0 -1.3499999999999999 0 0 -1.0999999999999999 0 0 -0.90000000000000013 0 0 -0.65000000000000013 0 0 -0.40000000000000013 0 0 -0.19999999999999996 0 0 0.050000000000000044 0 0 0.30000000000000004 0 0 0.50000000000000022 0 0 0.75000000000000022 0 0 1.0000000000000002 0 0 1.2000000000000004 0 0 1.4500000000000004 0 0 1.7000000000000004 0 0 1.9000000000000006 0 0 2.1500000000000004 0 0 2.4000000000000004 0 0 2.6000000000000005 0 0 2.8500000000000005 0 0 3.1000000000000005 0 0 3.3000000000000007 0 0 3.5500000000000007 0 0 3.8000000000000007 0 0 4.0000000000000009 0 0 4.2500000000000009 0 0 4.5000000000000009 0 0 4.7000000000000011 0 0 4.9500000000000011 0 0 5.2000000000000011 0 0 5.4000000000000004 0 0 5.6500000000000004 0 0 5.9000000000000004 0 0 6.0999999999999996 0 0 6.3499999999999996 0 0 6.5999999999999996 0 0 6.7999999999999989 0 0 7.0000000000000018 0 0 -2.2999999999999998 -0.20225424859373686 1.0305907818634509e-14 -2.1530536869268815 -0.40450849718747373 2.0611815637269018e-14 -2.0061073738537631 -0.60676274578121059 3.0917723455903526e-14 -1.859161060780645 -0.80901699437494745 4.1223631274538031e-14 -1.7122147477075267 -1.0112712429686843 5.1529539093172535e-14 -1.5652684346344083 -1.2135254915624212 6.183544691180704e-14 -1.41832212156129 -1.415779740156158 7.2141354730441544e-14 -1.2713758084881717 -1.6180339887498949 8.2447262549076049e-14 -1.1244294954150533 0 0 -1.5999999999999999 0.20225424859373686 -1.2486331127173393e-14 -1.4530536869268815 0.40450849718747373 -2.4972662254346786e-14 -1.3061073738537634 0.60676274578121059 -3.7458993381520179e-14 -1.1591610607806451 0.80901699437494745 -4.9945324508693573e-14 -1.0122147477075267 1.0112712429686843 -6.2431655635866966e-14 -0.86526843463440839 1.2135254915624212 -7.4917986763040359e-14 -0.71832212156129005 1.415779740156158 -8.7404317890213752e-14 -0.57137580848817171 1.6180339887498949 -9.9890649017387145e-14 -0.42442949541505337 0 0 -0.90000000000000013 -0.20225424859373686 1.4666754435712279e-14 -0.75305368692688179 -0.40450849718747373 2.9333508871424557e-14 -0.60610737385376356 -0.60676274578121059 4.4000263307136833e-14 -0.45916106078064528 -0.80901699437494745 5.8667017742849102e-14 -0.312214747707527 -1.0112712429686843 7.3333772178561371e-14 -0.16526843463440866 -1.2135254915624212 8.800052661427364e-14 -0.018322121561290317 -1.415779740156158 1.0266728104998591e-13 0.12862419151182802 -1.6180339887498949 1.1733403548569818e-13 0.27557050458494636 0 0 -0.19999999999999996 0.20225424859373686 6.1464681941323857e-15 -0.053053686926881671 0.40450849718747373 1.2292936388264771e-14 0.093892626146236613 0.60676274578121059 1.8439404582397157e-14 0.2408389392193549 0.80901699437494745 2.4585872776529543e-14 0.38778525229247318 1.0112712429686843 3.0732340970661929e-14 0.53473156536559152 1.2135254915624212 3.6878809164794314e-14 0.68167787843870986 1.415779740156158 4.30252773589267e-14 0.8286241915118282 1.6180339887498949 4.9171745553059086e-14 0.97557050458494654 0 0 0.50000000000000022 -0.20225424859373686 -3.9660448855935003e-15 0.64694631307311856 -0.40450849718747373 -7.9320897711870005e-15 0.79389262614623679 -0.60676274578121059 -1.1898134656780501e-14 0.94083893921935502 -0.80901699437494745 -1.5864179542374001e-14 1.0877852522924734 -1.0112712429686843 -1.9830224427967501e-14 1.2347315653655917 -1.2135254915624212 -2.3796269313561002e-14 1.38167787843871 -1.415779740156158 -2.7762314199154502e-14 1.5286241915118284 -1.6180339887498949 -3.1728359084748002e-14 1.6755705045849467 0 0 1.2000000000000004 0.20225424859373686 1.7856215770546156e-15 1.3469463130731187 0.40450849718747373 3.5712431541092311e-15 1.4938926261462369 0.60676274578121059 5.3568647311638467e-15 1.6408389392193552 0.80901699437494745 7.1424863082184623e-15 1.7877852522924735 1.0112712429686843 8.928107885273077e-15 1.9347315653655919 1.2135254915624212 1.0713729462327692e-14 2.0816778784387102 1.415779740156158 1.2499351039382307e-14 2.2286241915118286 1.6180339887498949 1.4284972616436921e-14 2.3755705045849469 0 0 1.9000000000000006 -0.20225424859373686 3.9480173148426966e-16 2.0469463130731187 -0.40450849718747373 7.8960346296853932e-16 2.193892626146237 -0.60676274578121059 1.1844051944528089e-15 2.3408389392193554 -0.80901699437494745 1.5792069259370784e-15 2.4877852522924737 -1.0112712429686843 1.974008657421348e-15 2.6347315653655921 -1.2135254915624212 2.3688103889056175e-15 2.7816778784387104 -1.415779740156158 2.763612120389887e-15 2.9286241915118287 -1.6180339887498949 3.1584138518741565e-15 3.0755705045849471 0 0 2.6000000000000005 0.20225424859373686 -2.575225040023155e-15 2.7469463130731189 0.40450849718747373 -5.15045008004631e-15 2.8938926261462372 0.60676274578121059 -7.7256751200694653e-15 3.0408389392193556 0.80901699437494745 -1.0300900160092622e-14 3.1877852522924739 1.0112712429686843 -1.2876125200115778e-14 3.3347315653655922 1.2135254915624212 -1.5451350240138934e-14 3.4816778784387106 1.415779740156158 -1.802657528016209e-14 3.6286241915118289 1.6180339887498949 -2.0601800320185246e-14 3.7755705045849473 0 0 3.3000000000000007 -0.20225424859373686 4.7556483485620393e-15 3.4469463130731191 -0.40450849718747373 9.5112966971240785e-15 3.5938926261462374 -0.60676274578121059 1.4266945045686119e-14 3.7408389392193557 -0.80901699437494745 1.902259339424816e-14 3.8877852522924741 -1.0112712429686843 2.3778241742810202e-14 4.0347315653655924 -1.2135254915624212 2.8533890091372244e-14 4.1816778784387107 -1.415779740156158 3.3289538439934282e-14 4.3286241915118291 -1.6180339887498949 3.8045186788496321e-14 4.4755705045849474 0 0 4.0000000000000009 0.20225424859373686 -6.9360716571009247e-15 4.1469463130731192 0.40450849718747373 -1.3872143314201849e-14 4.2938926261462376 0.60676274578121059 -2.0808214971302775e-14 4.4408389392193559 0.80901699437494745 -2.7744286628403702e-14 4.5877852522924742 1.0112712429686843 -3.4680358285504629e-14 4.7347315653655926 1.2135254915624212 -4.1616429942605556e-14 4.8816778784387109 1.415779740156158 -4.8552501599706483e-14 5.0286241915118293 1.6180339887498949 -5.5488573256807411e-14 5.1755705045849476 0 0 4.7000000000000011 -0.20225424859373686 9.1164949656398094e-15 4.8469463130731194 -0.40450849718747373 1.8232989931279619e-14 4.9938926261462377 -0.60676274578121059 2.7349484896919428e-14 5.1408389392193561 -0.80901699437494745 3.6465979862559238e-14 5.2877852522924744 -1.0112712429686843 4.5582474828199047e-14 5.4347315653655928 -1.2135254915624212 5.4698969793838857e-14 5.5816778784387111 -1.415779740156158 6.381546475947866e-14 5.7286241915118294 -1.6180339887498949 7.2931959725118463e-14 5.8755705045849478 0 0 5.4000000000000004 0.20225424859373686 -1.1296918274178695e-14 5.5469463130731187 0.40450849718747373 -2.259383654835739e-14 5.693892626146237 0.60676274578121059 -3.3890754822536088e-14 5.8408389392193554 0.80901699437494745 -4.5187673096714786e-14 5.9877852522924737 1.0112712429686843 -5.6484591370893484e-14 6.1347315653655921 1.2135254915624212 -6.7781509645072176e-14 6.2816778784387104 1.415779740156158 -7.9078427919250867e-14 6.4286241915118287 1.6180339887498949 -9.0375346193429559e-14 6.5755705045849471 0 0 6.0999999999999996 -0.20225424859373686 1.347734158271758e-14 6.246946313073118 -0.40450849718747373 2.6954683165435161e-14 6.3938926261462363 -0.60676274578121059 4.0432024748152741e-14 6.5408389392193547 -0.80901699437494745 5.3909366330870322e-14 6.687785252292473 -1.0112712429686843 6.7386707913587902e-14 6.8347315653655913 -1.2135254915624212 8.0864049496305482e-14 6.9816778784387097 -1.415779740156158 9.4341391079023063e-14 7.128624191511828 -1.6180339887498949 1.0781873266174064e-13 7.2755705045849464 0 0 6.7999999999999989 0.20225424859373686 -1.5657764891256466e-14 6.9469463130731173 0.40450849718747373 -3.1315529782512932e-14 7.0938926261462356 0.60676274578121059 -4.6973294673769394e-14 7.240838939219354 0.80901699437494745 -6.2631059565025851e-14 7.3877852522924723 1.0112712429686843 -7.8288824456282307e-14 7.5347315653655906 1.2135254915624212 -9.3946589347538764e-14 7.681677878438709 1.415779740156158 -1.0960435423879522e-13 7.8286241915118273 1.6180339887498949 -1.2526211913005168e-13 7.9755705045849457 </DataArray>
            </Points>
            <Lines>
                <DataArray type="Float32" Name="connectivity" NumberOfComponents="1" format="ascii">0 1 2 3 4 5 6 7 8 9 10 11 12 13 14 15 16 17 18 19 20 21 22 23 24 25 26 27 28 29 30 31 32 33 34 35 36 37 38 39 40 41 42 43 44 45 46 47 48 49 50 51 52 53 54 55 56 57 58 59 60 61 62 63 64 65 66 67 68 69 70 71 72 73 74 75 76 77 78 79 80 81 82 83 84 85 86 87 88 89 90 91 92 93 94 95 96 97 98 99 100 101 102 103 104 105 106 107 108 109 110 111 112 113 114 115 116 117 118 119 120 121 122 123 124 125 126 127 128 129 130 131 132 133 134 135 136 137 138 139 140 141 142 143 144 145 146 147 148 149 150 151 152 153 154 155 156 157 158 159 160 161 162 163 164 165 166 167 168 169 170 171 172 173 174 175 176 177 178 179 180 181 182 183 184 185 186 187 188 189 190 191 </DataArray>
                <DataArray type="Float32" Name="offsets" NumberOfComponents="1" format="ascii">13 22 66 75 84 93 102 111 120 129 138 147 156 165 174 183 192 </DataArray>
            </Lines>
        </Piece>
    </PolyData>
</VTKFile>
