<?xml version="1.0"?>
<VTKFile type="UnstructuredGrid" version="0.1" byte_order="LittleEndian">
  <UnstructuredGrid>
    <Piece NumberOfCells="4212" NumberOfPoints="5300">
      <PointData Scalars="S_liq">
        <DataArray type="Float32" Name="S_liq" NumberOfComponents="1" format="ascii">
          0.43 0.43 0.43 0.43 0.429206 0.429206 0.429206 0.429206 0.43 0.43 0.429206 0.429206
          0.43 0.43 0.429206 0.429206 0.43 0.43 0.429206 0.429206 0.43 0.43 0.429206 0.429206
          0.43 0.43 0.429206 0.429206 0.43 0.43 0.429206 0.429206 0.43 0.43 0.429206 0.429206
          0.43 0.43 0.429206 0.429206 0.43 0.43 0.429206 0.429206 0.43 0.429206 0.43 0.429206
          0.43 0.429206 0.43 0.429206 0.43 0.429206 0.43 0.429206 0.43 0.429206 0.43 0.429206
          0.43 0.43 0.429206 0.429206 0.43 0.429206 0.43 0.429206 0.43 0.429206 0.43 0.429206
          0.43 0.429206 0.43 0.429206 0.43 0.429206 0.43 0.429206 0.43 0.43 0.429206 0.429206
          0.43 0.429206 0.43 0.429206 0.43 0.429206 0.43 0.429206 0.43 0.429206 0.43 0.429206
          0.43 0.429206 0.43 0.429206 0.43 0.43 0.429206 0.429206 0.43 0.429206 0.43 0.429206
          0.43 0.429206 0.43 0.429206 0.43 0.429206 0.43 0.429206 0.43 0.429206 0.43 0.429206
          0.43 0.43 0.429206 0.429206 0.43 0.429206 0.43 0.429206 0.43 0.429206 0.43 0.429206
          0.43 0.429206 0.43 0.429206 0.43 0.429206 0.43 0.429206 0.43 0.43 0.429206 0.429206
          0.43 0.429206 0.43 0.429206 0.43 0.429206 0.43 0.429206 0.43 0.429206 0.43 0.429206
          0.43 0.429206 0.43 0.429206 0.43 0.43 0.429206 0.429206 0.43 0.429206 0.43 0.429206
          0.43 0.429206 0.43 0.429206 0.43 0.429206 0.43 0.429206 0.43 0.429206 0.43 0.429206
          0.43 0.43 0.429206 0.429206 0.43 0.429206 0.43 0.429206 0.43 0.429206 0.43 0.429206
          0.43 0.429206 0.43 0.429206 0.43 0.429206 0.43 0.429206 0.427607 0.427607 0.427607 0.427607
          0.427607 0.427607 0.427607 0.427607 0.427607 0.427607 0.427607 0.427607 0.427607 0.427607 0.427607 0.427607
          0.427607 0.427607 0.427607 0.427607 0.427607 0.427607 0.427607 0.427607 0.427607 0.427607 0.427607 0.427607
          0.427607 0.427607 0.427607 0.427607 0.427607 0.427607 0.427607 0.427607 0.427607 0.427607 0.427607 0.427607
          0.427607 0.427607 0.427607 0.427607 0.427607 0.427607 0.427607 0.427607 0.427607 0.427607 0.427607 0.427607
          0.427607 0.427607 0.427607 0.427607 0.427607 0.427607 0.427607 0.427607 0.427607 0.427607 0.427607 0.427607
          0.427607 0.427607 0.427607 0.427607 0.427607 0.427607 0.427607 0.427607 0.427607 0.427607 0.427607 0.427607
          0.427607 0.427607 0.427607 0.427607 0.427607 0.427607 0.427607 0.427607 0.427607 0.427607 0.427607 0.427607
          0.427607 0.427607 0.427607 0.427607 0.427607 0.427607 0.427607 0.427607 0.427607 0.427607 0.427607 0.427607
          0.425462 0.425462 0.425462 0.425462 0.425462 0.425462 0.425462 0.425462 0.425462 0.425462 0.425462 0.425462
          0.425462 0.425462 0.425462 0.425462 0.425462 0.425462 0.425462 0.425462 0.425462 0.425462 0.425462 0.425462
          0.425462 0.425462 0.425462 0.425462 0.425462 0.425462 0.425462 0.425462 0.425462 0.425462 0.425462 0.425462
          0.425462 0.425462 0.425462 0.425462 0.425462 0.425462 0.425462 0.425462 0.425462 0.425462 0.425462 0.425462
          0.425462 0.425462 0.425462 0.425462 0.425462 0.425462 0.425462 0.425462 0.425462 0.425462 0.425462 0.425462
          0.425462 0.425462 0.425462 0.425462 0.425462 0.425462 0.425462 0.425462 0.425462 0.425462 0.425462 0.425462
          0.425462 0.425462 0.425462 0.425462 0.425462 0.425462 0.425462 0.425462 0.425462 0.425462 0.425462 0.425462
          0.425462 0.425462 0.425462 0.425462 0.425462 0.425462 0.425462 0.425462 0.425462 0.425462 0.425462 0.425462
          0.425462 0.425462 0.425462 0.425462 0.42289 0.42289 0.42289 0.42289 0.42289 0.42289 0.42289 0.42289
          0.42289 0.42289 0.42289 0.42289 0.42289 0.42289 0.42289 0.42289 0.42289 0.42289 0.42289 0.42289
          0.42289 0.42289 0.42289 0.42289 0.42289 0.42289 0.42289 0.42289 0.42289 0.42289 0.42289 0.42289
          0.42289 0.42289 0.42289 0.42289 0.42289 0.42289 0.42289 0.42289 0.42289 0.42289 0.42289 0.42289
          0.42289 0.42289 0.42289 0.42289 0.42289 0.42289 0.42289 0.42289 0.42289 0.42289 0.42289 0.42289
          0.42289 0.42289 0.42289 0.42289 0.42289 0.42289 0.42289 0.42289 0.42289 0.42289 0.42289 0.42289
          0.42289 0.42289 0.42289 0.42289 0.42289 0.42289 0.42289 0.42289 0.42289 0.42289 0.42289 0.42289
          0.42289 0.42289 0.42289 0.42289 0.42289 0.42289 0.42289 0.42289 0.42289 0.42289 0.42289 0.42289
          0.42289 0.42289 0.42289 0.42289 0.42289 0.42289 0.42289 0.42289 0.419974 0.419974 0.419974 0.419974
          0.419974 0.419974 0.419974 0.419974 0.419974 0.419974 0.419974 0.419974 0.419974 0.419974 0.419974 0.419974
          0.419974 0.419974 0.419974 0.419974 0.419974 0.419974 0.419974 0.419974 0.419974 0.419974 0.419974 0.419974
          0.419974 0.419974 0.419974 0.419974 0.419974 0.419974 0.419974 0.419974 0.419974 0.419974 0.419974 0.419974
          0.419974 0.419974 0.419974 0.419974 0.419974 0.419974 0.419974 0.419974 0.419974 0.419974 0.419974 0.419974
          0.419974 0.419974 0.419974 0.419974 0.419974 0.419974 0.419974 0.419974 0.419974 0.419974 0.419974 0.419974
          0.419974 0.419974 0.419974 0.419974 0.419974 0.419974 0.419974 0.419974 0.419974 0.419974 0.419974 0.419974
          0.419974 0.419974 0.419974 0.419974 0.419974 0.419974 0.419974 0.419974 0.419974 0.419974 0.419974 0.419974
          0.419974 0.419974 0.419974 0.419974 0.419974 0.419974 0.419974 0.419974 0.419974 0.419974 0.419974 0.419974
          0.416777 0.416777 0.416777 0.416777 0.416777 0.416777 0.416777 0.416777 0.416777 0.416777 0.416777 0.416777
          0.416777 0.416777 0.416777 0.416777 0.416777 0.416777 0.416777 0.416777 0.416777 0.416777 0.416777 0.416777
          0.416777 0.416777 0.416777 0.416777 0.416777 0.416777 0.416777 0.416777 0.416777 0.416777 0.416777 0.416777
          0.416777 0.416777 0.416777 0.416777 0.416777 0.416777 0.416777 0.416777 0.416777 0.416777 0.416777 0.416777
          0.416777 0.416777 0.416777 0.416777 0.416777 0.416777 0.416777 0.416777 0.416777 0.416777 0.416777 0.416777
          0.416777 0.416777 0.416777 0.416777 0.416777 0.416777 0.416777 0.416777 0.416777 0.416777 0.416777 0.416777
          0.416777 0.416777 0.416777 0.416777 0.416777 0.416777 0.416777 0.416777 0.416777 0.416777 0.416777 0.416777
          0.416777 0.416777 0.416777 0.416777 0.416777 0.416777 0.416777 0.416777 0.416777 0.416777 0.416777 0.416777
          0.416777 0.416777 0.416777 0.416777 0.413352 0.413352 0.413352 0.413352 0.413352 0.413352 0.413352 0.413352
          0.413352 0.413352 0.413352 0.413352 0.413352 0.413352 0.413352 0.413352 0.413352 0.413352 0.413352 0.413352
          0.413352 0.413352 0.413352 0.413352 0.413352 0.413352 0.413352 0.413352 0.413352 0.413352 0.413352 0.413352
          0.413352 0.413352 0.413352 0.413352 0.413352 0.413352 0.413352 0.413352 0.413352 0.413352 0.413352 0.413352
          0.413352 0.413352 0.413352 0.413352 0.413352 0.413352 0.413352 0.413352 0.413352 0.413352 0.413352 0.413352
          0.413352 0.413352 0.413352 0.413352 0.413352 0.413352 0.413352 0.413352 0.413352 0.413352 0.413352 0.413352
          0.413352 0.413352 0.413352 0.413352 0.413352 0.413352 0.413352 0.413352 0.413352 0.413352 0.413352 0.413352
          0.413352 0.413352 0.413352 0.413352 0.413352 0.413352 0.413352 0.413352 0.413352 0.413352 0.413352 0.413352
          0.413352 0.413352 0.413352 0.413352 0.413352 0.413352 0.413352 0.413352 0.409742 0.409742 0.409742 0.409742
          0.409742 0.409742 0.409742 0.409742 0.409742 0.409742 0.409742 0.409742 0.409742 0.409742 0.409742 0.409742
          0.409742 0.409742 0.409742 0.409742 0.409742 0.409742 0.409742 0.409742 0.409742 0.409742 0.409742 0.409742
          0.409742 0.409742 0.409742 0.409742 0.409742 0.409742 0.409742 0.409742 0.409742 0.409742 0.409742 0.409742
          0.409742 0.409742 0.409742 0.409742 0.409742 0.409742 0.409742 0.409742 0.409742 0.409742 0.409742 0.409742
          0.409742 0.409742 0.409742 0.409742 0.409742 0.409742 0.409742 0.409742 0.409742 0.409742 0.409742 0.409742
          0.409742 0.409742 0.409742 0.409742 0.409742 0.409742 0.409742 0.409742 0.409742 0.409742 0.409742 0.409742
          0.409742 0.409742 0.409742 0.409742 0.409742 0.409742 0.409742 0.409742 0.409742 0.409742 0.409742 0.409742
          0.409742 0.409742 0.409742 0.409742 0.409742 0.409742 0.409742 0.409742 0.409742 0.409742 0.409742 0.409742
          0.405985 0.405985 0.405985 0.405985 0.405985 0.405985 0.405985 0.405985 0.405985 0.405985 0.405985 0.405985
          0.405985 0.405985 0.405985 0.405985 0.405985 0.405985 0.405985 0.405985 0.405985 0.405985 0.405985 0.405985
          0.405985 0.405985 0.405985 0.405985 0.405985 0.405985 0.405985 0.405985 0.405985 0.405985 0.405985 0.405985
          0.405985 0.405985 0.405985 0.405985 0.405985 0.405985 0.405985 0.405985 0.405985 0.405985 0.405985 0.405985
          0.405985 0.405985 0.405985 0.405985 0.405985 0.405985 0.405985 0.405985 0.405985 0.405985 0.405985 0.405985
          0.405985 0.405985 0.405985 0.405985 0.405985 0.405985 0.405985 0.405985 0.405985 0.405985 0.405985 0.405985
          0.405985 0.405985 0.405985 0.405985 0.405985 0.405985 0.405985 0.405985 0.405985 0.405985 0.405985 0.405985
          0.405985 0.405985 0.405985 0.405985 0.405985 0.405985 0.405985 0.405985 0.405985 0.405985 0.405985 0.405985
          0.405985 0.405985 0.405985 0.405985 0.402114 0.402114 0.402114 0.402114 0.402114 0.402114 0.402114 0.402114
          0.402114 0.402114 0.402114 0.402114 0.402114 0.402114 0.402114 0.402114 0.402114 0.402114 0.402114 0.402114
          0.402114 0.402114 0.402114 0.402114 0.402114 0.402114 0.402114 0.402114 0.402114 0.402114 0.402114 0.402114
          0.402114 0.402114 0.402114 0.402114 0.402114 0.402114 0.402114 0.402114 0.402114 0.402114 0.402114 0.402114
          0.402114 0.402114 0.402114 0.402114 0.402114 0.402114 0.402114 0.402114 0.402114 0.402114 0.402114 0.402114
          0.402114 0.402114 0.402114 0.402114 0.402114 0.402114 0.402114 0.402114 0.402114 0.402114 0.402114 0.402114
          0.402114 0.402114 0.402114 0.402114 0.402114 0.402114 0.402114 0.402114 0.402114 0.402114 0.402114 0.402114
          0.402114 0.402114 0.402114 0.402114 0.402114 0.402114 0.402114 0.402114 0.402114 0.402114 0.402114 0.402114
          0.402114 0.402114 0.402114 0.402114 0.402114 0.402114 0.402114 0.402114 0.398154 0.398154 0.398154 0.398154
          0.398154 0.398154 0.398154 0.398154 0.398154 0.398154 0.398154 0.398154 0.398154 0.398154 0.398154 0.398154
          0.398154 0.398154 0.398154 0.398154 0.398154 0.398154 0.398154 0.398154 0.398154 0.398154 0.398154 0.398154
          0.398154 0.398154 0.398154 0.398154 0.398154 0.398154 0.398154 0.398154 0.398154 0.398154 0.398154 0.398154
          0.398154 0.398154 0.398154 0.398154 0.398154 0.398154 0.398154 0.398154 0.398154 0.398154 0.398154 0.398154
          0.398154 0.398154 0.398154 0.398154 0.398154 0.398154 0.398154 0.398154 0.398154 0.398154 0.398154 0.398154
          0.398154 0.398154 0.398154 0.398154 0.398154 0.398154 0.398154 0.398154 0.398154 0.398154 0.398154 0.398154
          0.398154 0.398154 0.398154 0.398154 0.398154 0.398154 0.398154 0.398154 0.398154 0.398154 0.398154 0.398154
          0.398154 0.398154 0.398154 0.398154 0.398154 0.398154 0.398154 0.398154 0.398154 0.398154 0.398154 0.398154
          0.39413 0.39413 0.39413 0.39413 0.39413 0.39413 0.39413 0.39413 0.39413 0.39413 0.39413 0.39413
          0.39413 0.39413 0.39413 0.39413 0.39413 0.39413 0.39413 0.39413 0.39413 0.39413 0.39413 0.39413
          0.39413 0.39413 0.39413 0.39413 0.39413 0.39413 0.39413 0.39413 0.39413 0.39413 0.39413 0.39413
          0.39413 0.39413 0.39413 0.39413 0.39413 0.39413 0.39413 0.39413 0.39413 0.39413 0.39413 0.39413
          0.39413 0.39413 0.39413 0.39413 0.39413 0.39413 0.39413 0.39413 0.39413 0.39413 0.39413 0.39413
          0.39413 0.39413 0.39413 0.39413 0.39413 0.39413 0.39413 0.39413 0.39413 0.39413 0.39413 0.39413
          0.39413 0.39413 0.39413 0.39413 0.39413 0.39413 0.39413 0.39413 0.39413 0.39413 0.39413 0.39413
          0.39413 0.39413 0.39413 0.39413 0.39413 0.39413 0.39413 0.39413 0.39413 0.39413 0.39413 0.39413
          0.39413 0.39413 0.39413 0.39413 0.390061 0.390061 0.390061 0.390061 0.390061 0.390061 0.390061 0.390061
          0.390061 0.390061 0.390061 0.390061 0.390061 0.390061 0.390061 0.390061 0.390061 0.390061 0.390061 0.390061
          0.390061 0.390061 0.390061 0.390061 0.390061 0.390061 0.390061 0.390061 0.390061 0.390061 0.390061 0.390061
          0.390061 0.390061 0.390061 0.390061 0.390061 0.390061 0.390061 0.390061 0.390061 0.390061 0.390061 0.390061
          0.390061 0.390061 0.390061 0.390061 0.390061 0.390061 0.390061 0.390061 0.390061 0.390061 0.390061 0.390061
          0.390061 0.390061 0.390061 0.390061 0.390061 0.390061 0.390061 0.390061 0.390061 0.390061 0.390061 0.390061
          0.390061 0.390061 0.390061 0.390061 0.390061 0.390061 0.390061 0.390061 0.390061 0.390061 0.390061 0.390061
          0.390061 0.390061 0.390061 0.390061 0.390061 0.390061 0.390061 0.390061 0.390061 0.390061 0.390061 0.390061
          0.390061 0.390061 0.390061 0.390061 0.390061 0.390061 0.390061 0.390061 0.385963 0.385963 0.385963 0.385963
          0.385963 0.385963 0.385963 0.385963 0.385963 0.385963 0.385963 0.385963 0.385963 0.385963 0.385963 0.385963
          0.385963 0.385963 0.385963 0.385963 0.385963 0.385963 0.385963 0.385963 0.385963 0.385963 0.385963 0.385963
          0.385963 0.385963 0.385963 0.385963 0.385963 0.385963 0.385963 0.385963 0.385963 0.385963 0.385963 0.385963
          0.385963 0.385963 0.385963 0.385963 0.385963 0.385963 0.385963 0.385963 0.385963 0.385963 0.385963 0.385963
          0.385963 0.385963 0.385963 0.385963 0.385963 0.385963 0.385963 0.385963 0.385963 0.385963 0.385963 0.385963
          0.385963 0.385963 0.385963 0.385963 0.385963 0.385963 0.385963 0.385963 0.385963 0.385963 0.385963 0.385963
          0.385963 0.385963 0.385963 0.385963 0.385963 0.385963 0.385963 0.385963 0.385963 0.385963 0.385963 0.385963
          0.385963 0.385963 0.385963 0.385963 0.385963 0.385963 0.385963 0.385963 0.385963 0.385963 0.385963 0.385963
          0.381849 0.381849 0.381849 0.381849 0.381849 0.381849 0.381849 0.381849 0.381849 0.381849 0.381849 0.381849
          0.381849 0.381849 0.381849 0.381849 0.381849 0.381849 0.381849 0.381849 0.381849 0.381849 0.381849 0.381849
          0.381849 0.381849 0.381849 0.381849 0.381849 0.381849 0.381849 0.381849 0.381849 0.381849 0.381849 0.381849
          0.381849 0.381849 0.381849 0.381849 0.381849 0.381849 0.381849 0.381849 0.381849 0.381849 0.381849 0.381849
          0.381849 0.381849 0.381849 0.381849 0.381849 0.381849 0.381849 0.381849 0.381849 0.381849 0.381849 0.381849
          0.381849 0.381849 0.381849 0.381849 0.381849 0.381849 0.381849 0.381849 0.381849 0.381849 0.381849 0.381849
          0.381849 0.381849 0.381849 0.381849 0.381849 0.381849 0.381849 0.381849 0.381849 0.381849 0.381849 0.381849
          0.381849 0.381849 0.381849 0.381849 0.381849 0.381849 0.381849 0.381849 0.381849 0.381849 0.381849 0.381849
          0.381849 0.381849 0.381849 0.381849 0.377731 0.377731 0.377731 0.377731 0.377731 0.377731 0.377731 0.377731
          0.377731 0.377731 0.377731 0.377731 0.377731 0.377731 0.377731 0.377731 0.377731 0.377731 0.377731 0.377731
          0.377731 0.377731 0.377731 0.377731 0.377731 0.377731 0.377731 0.377731 0.377731 0.377731 0.377731 0.377731
          0.377731 0.377731 0.377731 0.377731 0.377731 0.377731 0.377731 0.377731 0.377731 0.377731 0.377731 0.377731
          0.377731 0.377731 0.377731 0.377731 0.377731 0.377731 0.377731 0.377731 0.377731 0.377731 0.377731 0.377731
          0.377731 0.377731 0.377731 0.377731 0.377731 0.377731 0.377731 0.377731 0.377731 0.377731 0.377731 0.377731
          0.377731 0.377731 0.377731 0.377731 0.377731 0.377731 0.377731 0.377731 0.377731 0.377731 0.377731 0.377731
          0.377731 0.377731 0.377731 0.377731 0.377731 0.377731 0.377731 0.377731 0.377731 0.377731 0.377731 0.377731
          0.377731 0.377731 0.377731 0.377731 0.377731 0.377731 0.377731 0.377731 0.373618 0.373618 0.373618 0.373618
          0.373618 0.373618 0.373618 0.373618 0.373618 0.373618 0.373618 0.373618 0.373618 0.373618 0.373618 0.373618
          0.373618 0.373618 0.373618 0.373618 0.373618 0.373618 0.373618 0.373618 0.373618 0.373618 0.373618 0.373618
          0.373618 0.373618 0.373618 0.373618 0.373618 0.373618 0.373618 0.373618 0.373618 0.373618 0.373618 0.373618
          0.373618 0.373618 0.373618 0.373618 0.373618 0.373618 0.373618 0.373618 0.373618 0.373618 0.373618 0.373618
          0.373618 0.373618 0.373618 0.373618 0.373618 0.373618 0.373618 0.373618 0.373618 0.373618 0.373618 0.373618
          0.373618 0.373618 0.373618 0.373618 0.373618 0.373618 0.373618 0.373618 0.373618 0.373618 0.373618 0.373618
          0.373618 0.373618 0.373618 0.373618 0.373618 0.373618 0.373618 0.373618 0.373618 0.373618 0.373618 0.373618
          0.373618 0.373618 0.373618 0.373618 0.373618 0.373618 0.373618 0.373618 0.373618 0.373618 0.373618 0.373618
          0.369517 0.369517 0.369517 0.369517 0.369517 0.369517 0.369517 0.369517 0.369517 0.369517 0.369517 0.369517
          0.369517 0.369517 0.369517 0.369517 0.369517 0.369517 0.369517 0.369517 0.369517 0.369517 0.369517 0.369517
          0.369517 0.369517 0.369517 0.369517 0.369517 0.369517 0.369517 0.369517 0.369517 0.369517 0.369517 0.369517
          0.369517 0.369517 0.369517 0.369517 0.369517 0.369517 0.369517 0.369517 0.369517 0.369517 0.369517 0.369517
          0.369517 0.369517 0.369517 0.369517 0.369517 0.369517 0.369517 0.369517 0.369517 0.369517 0.369517 0.369517
          0.369517 0.369517 0.369517 0.369517 0.369517 0.369517 0.369517 0.369517 0.369517 0.369517 0.369517 0.369517
          0.369517 0.369517 0.369517 0.369517 0.369517 0.369517 0.369517 0.369517 0.369517 0.369517 0.369517 0.369517
          0.369517 0.369517 0.369517 0.369517 0.369517 0.369517 0.369517 0.369517 0.369517 0.369517 0.369517 0.369517
          0.369517 0.369517 0.369517 0.369517 0.365432 0.365432 0.365432 0.365432 0.365432 0.365432 0.365432 0.365432
          0.365432 0.365432 0.365432 0.365432 0.365432 0.365432 0.365432 0.365432 0.365432 0.365432 0.365432 0.365432
          0.365432 0.365432 0.365432 0.365432 0.365432 0.365432 0.365432 0.365432 0.365432 0.365432 0.365432 0.365432
          0.365432 0.365432 0.365432 0.365432 0.365432 0.365432 0.365432 0.365432 0.365432 0.365432 0.365432 0.365432
          0.365432 0.365432 0.365432 0.365432 0.365432 0.365432 0.365432 0.365432 0.365432 0.365432 0.365432 0.365432
          0.365432 0.365432 0.365432 0.365432 0.365432 0.365432 0.365432 0.365432 0.365432 0.365432 0.365432 0.365432
          0.365432 0.365432 0.365432 0.365432 0.365432 0.365432 0.365432 0.365432 0.365432 0.365432 0.365432 0.365432
          0.365432 0.365432 0.365432 0.365432 0.365432 0.365432 0.365432 0.365432 0.365432 0.365432 0.365432 0.365432
          0.365432 0.365432 0.365432 0.365432 0.365432 0.365432 0.365432 0.365432 0.361369 0.361369 0.361369 0.361369
          0.361369 0.361369 0.361369 0.361369 0.361369 0.361369 0.361369 0.361369 0.361369 0.361369 0.361369 0.361369
          0.361369 0.361369 0.361369 0.361369 0.361369 0.361369 0.361369 0.361369 0.361369 0.361369 0.361369 0.361369
          0.361369 0.361369 0.361369 0.361369 0.361369 0.361369 0.361369 0.361369 0.361369 0.361369 0.361369 0.361369
          0.361369 0.361369 0.361369 0.361369 0.361369 0.361369 0.361369 0.361369 0.361369 0.361369 0.361369 0.361369
          0.361369 0.361369 0.361369 0.361369 0.361369 0.361369 0.361369 0.361369 0.361369 0.361369 0.361369 0.361369
          0.361369 0.361369 0.361369 0.361369 0.361369 0.361369 0.361369 0.361369 0.361369 0.361369 0.361369 0.361369
          0.361369 0.361369 0.361369 0.361369 0.361369 0.361369 0.361369 0.361369 0.361369 0.361369 0.361369 0.361369
          0.361369 0.361369 0.361369 0.361369 0.361369 0.361369 0.361369 0.361369 0.361369 0.361369 0.361369 0.361369
          0.357329 0.357329 0.357329 0.357329 0.357329 0.357329 0.357329 0.357329 0.357329 0.357329 0.357329 0.357329
          0.357329 0.357329 0.357329 0.357329 0.357329 0.357329 0.357329 0.357329 0.357329 0.357329 0.357329 0.357329
          0.357329 0.357329 0.357329 0.357329 0.357329 0.357329 0.357329 0.357329 0.357329 0.357329 0.357329 0.357329
          0.357329 0.357329 0.357329 0.357329 0.357329 0.357329 0.357329 0.357329 0.357329 0.357329 0.357329 0.357329
          0.357329 0.357329 0.357329 0.357329 0.357329 0.357329 0.357329 0.357329 0.357329 0.357329 0.357329 0.357329
          0.357329 0.357329 0.357329 0.357329 0.357329 0.357329 0.357329 0.357329 0.357329 0.357329 0.357329 0.357329
          0.357329 0.357329 0.357329 0.357329 0.357329 0.357329 0.357329 0.357329 0.357329 0.357329 0.357329 0.357329
          0.357329 0.357329 0.357329 0.357329 0.357329 0.357329 0.357329 0.357329 0.357329 0.357329 0.357329 0.357329
          0.357329 0.357329 0.357329 0.357329 0.353313 0.353313 0.353313 0.353313 0.353313 0.353313 0.353313 0.353313
          0.353313 0.353313 0.353313 0.353313 0.353313 0.353313 0.353313 0.353313 0.353313 0.353313 0.353313 0.353313
          0.353313 0.353313 0.353313 0.353313 0.353313 0.353313 0.353313 0.353313 0.353313 0.353313 0.353313 0.353313
          0.353313 0.353313 0.353313 0.353313 0.353313 0.353313 0.353313 0.353313 0.353313 0.353313 0.353313 0.353313
          0.353313 0.353313 0.353313 0.353313 0.353313 0.353313 0.353313 0.353313 0.353313 0.353313 0.353313 0.353313
          0.353313 0.353313 0.353313 0.353313 0.353313 0.353313 0.353313 0.353313 0.353313 0.353313 0.353313 0.353313
          0.353313 0.353313 0.353313 0.353313 0.353313 0.353313 0.353313 0.353313 0.353313 0.353313 0.353313 0.353313
          0.353313 0.353313 0.353313 0.353313 0.353313 0.353313 0.353313 0.353313 0.353313 0.353313 0.353313 0.353313
          0.353313 0.353313 0.353313 0.353313 0.353313 0.353313 0.353313 0.353313 0.349324 0.349324 0.349324 0.349324
          0.349324 0.349324 0.349324 0.349324 0.349324 0.349324 0.349324 0.349324 0.349324 0.349324 0.349324 0.349324
          0.349324 0.349324 0.349324 0.349324 0.349324 0.349324 0.349324 0.349324 0.349324 0.349324 0.349324 0.349324
          0.349324 0.349324 0.349324 0.349324 0.349324 0.349324 0.349324 0.349324 0.349324 0.349324 0.349324 0.349324
          0.349324 0.349324 0.349324 0.349324 0.349324 0.349324 0.349324 0.349324 0.349324 0.349324 0.349324 0.349324
          0.349324 0.349324 0.349324 0.349324 0.349324 0.349324 0.349324 0.349324 0.349324 0.349324 0.349324 0.349324
          0.349324 0.349324 0.349324 0.349324 0.349324 0.349324 0.349324 0.349324 0.349324 0.349324 0.349324 0.349324
          0.349324 0.349324 0.349324 0.349324 0.349324 0.349324 0.349324 0.349324 0.349324 0.349324 0.349324 0.349324
          0.349324 0.349324 0.349324 0.349324 0.349324 0.349324 0.349324 0.349324 0.349324 0.349324 0.349324 0.349324
          0.345359 0.345359 0.345359 0.345359 0.345359 0.345359 0.345359 0.345359 0.345359 0.345359 0.345359 0.345359
          0.345359 0.345359 0.345359 0.345359 0.345359 0.345359 0.345359 0.345359 0.345359 0.345359 0.345359 0.345359
          0.345359 0.345359 0.345359 0.345359 0.345359 0.345359 0.345359 0.345359 0.345359 0.345359 0.345359 0.345359
          0.345359 0.345359 0.345359 0.345359 0.345359 0.345359 0.345359 0.345359 0.345359 0.345359 0.345359 0.345359
          0.345359 0.345359 0.345359 0.345359 0.345359 0.345359 0.345359 0.345359 0.345359 0.345359 0.345359 0.345359
          0.345359 0.345359 0.345359 0.345359 0.345359 0.345359 0.345359 0.345359 0.345359 0.345359 0.345359 0.345359
          0.345359 0.345359 0.345359 0.345359 0.345359 0.345359 0.345359 0.345359 0.345359 0.345359 0.345359 0.345359
          0.345359 0.345359 0.345359 0.345359 0.345359 0.345359 0.345359 0.345359 0.345359 0.345359 0.345359 0.345359
          0.345359 0.345359 0.345359 0.345359 0.341417 0.341417 0.341417 0.341417 0.341417 0.341417 0.341417 0.341417
          0.341417 0.341417 0.341417 0.341417 0.341417 0.341417 0.341417 0.341417 0.341417 0.341417 0.341417 0.341417
          0.341417 0.341417 0.341417 0.341417 0.341417 0.341417 0.341417 0.341417 0.341417 0.341417 0.341417 0.341417
          0.341417 0.341417 0.341417 0.341417 0.341417 0.341417 0.341417 0.341417 0.341417 0.341417 0.341417 0.341417
          0.341417 0.341417 0.341417 0.341417 0.341417 0.341417 0.341417 0.341417 0.341417 0.341417 0.341417 0.341417
          0.341417 0.341417 0.341417 0.341417 0.341417 0.341417 0.341417 0.341417 0.341417 0.341417 0.341417 0.341417
          0.341417 0.341417 0.341417 0.341417 0.341417 0.341417 0.341417 0.341417 0.341417 0.341417 0.341417 0.341417
          0.341417 0.341417 0.341417 0.341417 0.341417 0.341417 0.341417 0.341417 0.341417 0.341417 0.341417 0.341417
          0.341417 0.341417 0.341417 0.341417 0.341417 0.341417 0.341417 0.341417 0.337498 0.337498 0.337498 0.337498
          0.337498 0.337498 0.337498 0.337498 0.337498 0.337498 0.337498 0.337498 0.337498 0.337498 0.337498 0.337498
          0.337498 0.337498 0.337498 0.337498 0.337498 0.337498 0.337498 0.337498 0.337498 0.337498 0.337498 0.337498
          0.337498 0.337498 0.337498 0.337498 0.337498 0.337498 0.337498 0.337498 0.337498 0.337498 0.337498 0.337498
          0.337498 0.337498 0.337498 0.337498 0.337498 0.337498 0.337498 0.337498 0.337498 0.337498 0.337498 0.337498
          0.337498 0.337498 0.337498 0.337498 0.337498 0.337498 0.337498 0.337498 0.337498 0.337498 0.337498 0.337498
          0.337498 0.337498 0.337498 0.337498 0.337498 0.337498 0.337498 0.337498 0.337498 0.337498 0.337498 0.337498
          0.337498 0.337498 0.337498 0.337498 0.337498 0.337498 0.337498 0.337498 0.337498 0.337498 0.337498 0.337498
          0.337498 0.337498 0.337498 0.337498 0.337498 0.337498 0.337498 0.337498 0.337498 0.337498 0.337498 0.337498
          0.333597 0.333597 0.333597 0.333597 0.333597 0.333597 0.333597 0.333597 0.333597 0.333597 0.333597 0.333597
          0.333597 0.333597 0.333597 0.333597 0.333597 0.333597 0.333597 0.333597 0.333597 0.333597 0.333597 0.333597
          0.333597 0.333597 0.333597 0.333597 0.333597 0.333597 0.333597 0.333597 0.333597 0.333597 0.333597 0.333597
          0.333597 0.333597 0.333597 0.333597 0.333597 0.333597 0.333597 0.333597 0.333597 0.333597 0.333597 0.333597
          0.333597 0.333597 0.333597 0.333597 0.333597 0.333597 0.333597 0.333597 0.333597 0.333597 0.333597 0.333597
          0.333597 0.333597 0.333597 0.333597 0.333597 0.333597 0.333597 0.333597 0.333597 0.333597 0.333597 0.333597
          0.333597 0.333597 0.333597 0.333597 0.333597 0.333597 0.333597 0.333597 0.333597 0.333597 0.333597 0.333597
          0.333597 0.333597 0.333597 0.333597 0.333597 0.333597 0.333597 0.333597 0.333597 0.333597 0.333597 0.333597
          0.333597 0.333597 0.333597 0.333597 0.329712 0.329712 0.329712 0.329712 0.329712 0.329712 0.329712 0.329712
          0.329712 0.329712 0.329712 0.329712 0.329712 0.329712 0.329712 0.329712 0.329712 0.329712 0.329712 0.329712
          0.329712 0.329712 0.329712 0.329712 0.329712 0.329712 0.329712 0.329712 0.329712 0.329712 0.329712 0.329712
          0.329712 0.329712 0.329712 0.329712 0.329712 0.329712 0.329712 0.329712 0.329712 0.329712 0.329712 0.329712
          0.329712 0.329712 0.329712 0.329712 0.329712 0.329712 0.329712 0.329712 0.329712 0.329712 0.329712 0.329712
          0.329712 0.329712 0.329712 0.329712 0.329712 0.329712 0.329712 0.329712 0.329712 0.329712 0.329712 0.329712
          0.329712 0.329712 0.329712 0.329712 0.329712 0.329712 0.329712 0.329712 0.329712 0.329712 0.329712 0.329712
          0.329712 0.329712 0.329712 0.329712 0.329712 0.329712 0.329712 0.329712 0.329712 0.329712 0.329712 0.329712
          0.329712 0.329712 0.329712 0.329712 0.329712 0.329712 0.329712 0.329712 0.325838 0.325838 0.325838 0.325838
          0.325838 0.325838 0.325838 0.325838 0.325838 0.325838 0.325838 0.325838 0.325838 0.325838 0.325838 0.325838
          0.325838 0.325838 0.325838 0.325838 0.325838 0.325838 0.325838 0.325838 0.325838 0.325838 0.325838 0.325838
          0.325838 0.325838 0.325838 0.325838 0.325838 0.325838 0.325838 0.325838 0.325838 0.325838 0.325838 0.325838
          0.325838 0.325838 0.325838 0.325838 0.325838 0.325838 0.325838 0.325838 0.325838 0.325838 0.325838 0.325838
          0.325838 0.325838 0.325838 0.325838 0.325838 0.325838 0.325838 0.325838 0.325838 0.325838 0.325838 0.325838
          0.325838 0.325838 0.325838 0.325838 0.325838 0.325838 0.325838 0.325838 0.325838 0.325838 0.325838 0.325838
          0.325838 0.325838 0.325838 0.325838 0.325838 0.325838 0.325838 0.325838 0.325838 0.325838 0.325838 0.325838
          0.325838 0.325838 0.325838 0.325838 0.325838 0.325838 0.325838 0.325838 0.325838 0.325838 0.325838 0.325838
          0.321971 0.321971 0.321971 0.321971 0.321971 0.321971 0.321971 0.321971 0.321971 0.321971 0.321971 0.321971
          0.321971 0.321971 0.321971 0.321971 0.321971 0.321971 0.321971 0.321971 0.321971 0.321971 0.321971 0.321971
          0.321971 0.321971 0.321971 0.321971 0.321971 0.321971 0.321971 0.321971 0.321971 0.321971 0.321971 0.321971
          0.321971 0.321971 0.321971 0.321971 0.321971 0.321971 0.321971 0.321971 0.321971 0.321971 0.321971 0.321971
          0.321971 0.321971 0.321971 0.321971 0.321971 0.321971 0.321971 0.321971 0.321971 0.321971 0.321971 0.321971
          0.321971 0.321971 0.321971 0.321971 0.321971 0.321971 0.321971 0.321971 0.321971 0.321971 0.321971 0.321971