<?xml version="1.0"?><VTKFile type="PolyData" version="0.1" byte_order="LittleEndian">
<PolyData>
<Piece NumberOfLines="68" NumberOfPoints="70">
<CellData Scalars=" CellData">
<DataArray type="Float32" Name="organtype" NumberOfComponents="1" format="ascii" >
2 2 2 2 2 2 2 2 2 2 2 2 2 2 2 2 2 2 2 2 2 2 2 2 2 2 4 4 4 4 4 4 4 4 4 4 4 4 4 4 4 4 4 4 4 4 4 4 4 4 4 4 4 4 4 4 4 4 4 4 4 4 4 4 4 4 4 4 
</DataArray>
<DataArray type="Float32" Name="id" NumberOfComponents="1" format="ascii" >
1 1 1 1 1 1 1 1 1 1 1 1 1 1 1 1 1 1 1 1 4 4 4 4 4 4 2 2 2 2 2 2 2 2 2 2 2 2 2 2 2 2 2 2 2 2 2 2 2 5 5 5 5 5 5 5 5 5 6 6 6 6 6 6 6 7 7 7 
</DataArray>
<DataArray type="Float32" Name="subtype" NumberOfComponents="1" format="ascii" >
1 1 1 1 1 1 1 1 1 1 1 1 1 1 1 1 1 1 1 1 2 2 2 2 2 2 1 1 1 1 1 1 1 1 1 1 1 1 1 1 1 1 1 1 1 1 1 1 1 3 3 3 3 3 3 3 3 3 3 3 3 3 3 3 3 3 3 3 
</DataArray>
<DataArray type="Float32" Name="emergencetime" NumberOfComponents="1" format="ascii" >
0.0558799 0.0558799 0.0558799 0.0558799 0.0558799 0.0558799 0.0558799 0.0558799 0.0558799 0.0558799 0.0558799 0.0558799 0.0558799 0.0558799 0.0558799 0.0558799 0.0558799 0.0558799 0.0558799 0.0558799 8.27923 8.27923 8.27923 8.27923 8.27923 8.27923 0.0506997 0.0506997 0.0506997 0.0506997 0.0506997 0.0506997 0.0506997 0.0506997 0.0506997 0.0506997 0.0506997 0.0506997 0.0506997 0.0506997 0.0506997 0.0506997 0.0506997 0.0506997 0.0506997 0.0506997 0.0506997 0.0506997 0.0506997 1.50806 1.50806 1.50806 1.50806 1.50806 1.50806 1.50806 1.50806 1.50806 2.01691 2.01691 2.01691 2.01691 2.01691 2.01691 2.01691 3.90258 3.90258 3.90258 
</DataArray>
<DataArray type="Float32" Name="pressure" NumberOfComponents="1" format="ascii" >
-699.752 -699.776 -699.801 -699.825 -699.85 -699.874 -699.898 -699.923 -699.947 -699.972 -699.996 -700.02 -700.044 -700.068 -700.093 -700.117 -700.141 -700.165 -700.188 -700.211 -700.035 -700.045 -700.058 -700.071 -700.083 -700.092 -700.289 -700.265 -700.24 -700.216 -700.191 -700.167 -700.142 -700.118 -700.093 -700.069 -700.045 -700.02 -700.008 -699.996 -699.971 -699.947 -699.922 -699.898 -699.873 -699.849 -699.824 -699.8 -699.788 -700.093 -700.069 -700.044 -700.02 -699.995 -699.971 -699.946 -699.922 -699.908 -699.996 -699.971 -699.947 -699.922 -699.898 -699.873 -699.854 -699.8 -699.775 -699.759 
</DataArray>
<DataArray type="Float32" Name="axial_flux" NumberOfComponents="1" format="ascii" >
9.80082e-13 9.68758e-13 9.77892e-13 9.77691e-13 9.7614e-13 9.76571e-13 9.79412e-13 9.78094e-13 9.77116e-13 9.70013e-13 9.71575e-13 9.57399e-13 9.71431e-13 9.75361e-13 9.75075e-13 9.74978e-13 9.55539e-13 9.16954e-13 9.35929e-13 9.46239e-13 2.6869e-13 5.11518e-13 5.18541e-13 5.15434e-13 4.96413e-13 4.03049e-13 -9.80536e-13 -9.80319e-13 -9.80121e-13 -9.79941e-13 -9.79782e-13 -9.79641e-13 -9.7952e-13 -9.79417e-13 -9.79296e-13 -9.79232e-13 -9.79188e-13 -9.79162e-13 -9.79155e-13 -9.79534e-13 -9.79547e-13 -9.7958e-13 -9.79631e-13 -9.79702e-13 -9.79792e-13 -9.79901e-13 -9.80029e-13 -9.8057e-13 -9.80649e-13 -9.80651e-13 -9.80588e-13 -9.80543e-13 -9.80518e-13 -9.80512e-13 -9.80525e-13 -9.80558e-13 -9.80609e-13 -9.80645e-13 -9.80274e-13 -9.80287e-13 -9.80319e-13 -9.8037e-13 -9.80441e-13 -9.80531e-13 -9.80616e-13 -9.80335e-13 -9.80502e-13 -9.8062e-13 
</DataArray>
<DataArray type="Float32" Name="radial_flux" NumberOfComponents="1" format="ascii" >
1.65615e-15 1.49342e-15 1.3309e-15 1.16766e-15 1.00459e-15 8.41635e-16 6.78421e-16 5.15093e-16 3.51967e-16 1.89522e-16 2.75446e-17 -1.33379e-16 -2.94316e-16 -4.5678e-16 -6.19558e-16 -7.82316e-16 -9.43458e-16 -1.09977e-15 -1.25447e-15 -1.41161e-15 -1.24655e-17 -1.59101e-17 -2.04588e-17 -2.50252e-17 -2.94943e-17 -1.62539e-17 -1.81745e-15 -1.66348e-15 -1.50958e-15 -1.35573e-15 -1.20194e-15 -1.04819e-15 -8.9449e-16 -7.40821e-16 -5.87187e-16 -4.33582e-16 -2.79994e-16 -1.26418e-16 -1.76993e-21 2.72192e-17 1.80911e-16 3.3461e-16 4.88322e-16 6.42053e-16 7.95809e-16 9.49597e-16 1.10336e-15 1.25734e-15 9.33856e-18 -8.80461e-16 -6.49415e-16 -4.18395e-16 -1.87391e-16 4.36056e-17 2.74604e-16 5.05613e-16 7.36642e-16 1.17989e-16 4.1003e-17 2.71889e-16 5.02785e-16 7.33702e-16 9.64647e-16 1.19563e-15 8.27491e-16 1.88596e-15 2.11691e-15 7.21326e-16 
</DataArray>
<DataArray type="Float32" Name="net_flux" NumberOfComponents="1" format="ascii" >
9.81738e-13 9.70252e-13 9.79223e-13 9.78858e-13 9.77144e-13 9.77412e-13 9.8009e-13 9.78609e-13 9.77468e-13 9.70203e-13 9.71602e-13 9.57265e-13 9.71137e-13 9.74904e-13 9.74455e-13 9.74196e-13 9.54596e-13 9.15854e-13 9.34674e-13 9.44827e-13 2.68678e-13 5.11502e-13 5.1852e-13 5.15409e-13 4.96384e-13 4.03033e-13 -9.82354e-13 -9.81982e-13 -9.8163e-13 -9.81297e-13 -9.80984e-13 -9.80689e-13 -9.80414e-13 -9.80158e-13 -9.79883e-13 -9.79666e-13 -9.79468e-13 -9.79289e-13 -9.79155e-13 -9.79507e-13 -9.79367e-13 -9.79245e-13 -9.79143e-13 -9.7906e-13 -9.78996e-13 -9.78951e-13 -9.78926e-13 -9.79313e-13 -9.8064e-13 -9.81532e-13 -9.81237e-13 -9.80962e-13 -9.80705e-13 -9.80468e-13 -9.80251e-13 -9.80052e-13 -9.79873e-13 -9.80527e-13 -9.80233e-13 -9.80015e-13 -9.79816e-13 -9.79637e-13 -9.79477e-13 -9.79336e-13 -9.79788e-13 -9.78449e-13 -9.78385e-13 -9.79899e-13 
</DataArray>

</CellData>
<Points>
<DataArray type="Float32" Name="Coordinates" NumberOfComponents="3" format="ascii" >
0 0 -3 -0.00206963 0.00746468 -3.24988 -0.0288397 0.0349307 -3.49692 -0.038633 0.0490073 -3.74633 -0.0316557 0.0648907 -3.99573 -0.0242184 0.0442391 -4.24476 -0.0151986 0.0260193 -4.49394 -0.0201304 0.0220078 -4.74385 -0.033091 0.0164087 -4.99346 -0.0159311 0.0116311 -5.24282 0.00850129 -0.0131896 -5.49038 0.0255707 -0.0400748 -5.73835 0.0632384 -0.0771593 -5.98269 0.0792384 -0.105688 -6.23054 0.102128 -0.0983457 -6.47939 0.0944313 -0.0746186 -6.72814 0.0801851 -0.0535965 -6.97685 0.0536841 -0.00465162 -7.22057 -0.00336369 0.0628461 -7.45443 -0.0590078 0.112294 -7.69309 -0.12455 0.110502 -7.93433 0.251289 -0.226947 -6.05126 0.398605 -0.381149 -6.18171 0.546095 -0.53366 -6.31395 0.692894 -0.687527 -6.44539 0.84196 -0.843282 -6.57196 0.91822 -0.927638 -6.62323 0 0 -3 0 0 -2.75 0 0 -2.5 0 0 -2.25 0 0 -2 0 0 -1.75 0 0 -1.5 0 0 -1.25 0 0 -1 0 0 -0.75 0 0 -0.5 0 0 -0.25 0 0 0 0 0 8.91592e-06 0 0 0.250009 0 0 0.500009 0 0 0.750009 0 0 1.00001 0 0 1.25001 0 0 1.50001 0 0 1.75001 0 0 2 0 0 2.25 0 0 2.25175 -1.38778e-17 6.93889e-18 -0.75 -2.77556e-17 1.38778e-17 -0.5 0 2.77556e-17 -0.25 0 4.16334e-17 2.22045e-16 0 5.55112e-17 0.25 5.55112e-17 8.32667e-17 0.5 1.11022e-16 1.11022e-16 0.75 0 1.11022e-16 1 1.11022e-16 8.32667e-17 1.03399 -6.93889e-18 0 0.250009 -1.38778e-17 0 0.500009 0 0 0.750009 0 5.55112e-17 1.00001 5.55112e-17 5.55112e-17 1.25001 5.55112e-17 5.55112e-17 1.50001 5.55112e-17 1.11022e-16 1.64988 3.22581e-18 0 2.25 6.45162e-18 0 2.5 7.47706e-18 0 2.57947 
</DataArray>
</Points>
<Lines>
<DataArray type="Int32" Name="connectivity" NumberOfComponents="1" format="ascii" >
0 1 1 2 2 3 3 4 4 5 5 6 6 7 7 8 8 9 9 10 10 11 11 12 12 13 13 14 14 15 15 16 16 17 17 18 18 19 19 20 12 21 21 22 22 23 23 24 24 25 25 26 27 28 28 29 29 30 30 31 31 32 32 33 33 34 34 35 35 36 36 37 37 38 38 39 39 40 40 41 41 42 42 43 43 44 44 45 45 46 46 47 47 48 48 49 49 50 35 51 51 52 52 53 53 54 54 55 55 56 56 57 57 58 58 59 40 60 60 61 61 62 62 63 63 64 64 65 65 66 48 67 67 68 68 69 
</DataArray>
<DataArray type="Int32" Name="offsets" NumberOfComponents="1" format="ascii" >
2 4 6 8 10 12 14 16 18 20 22 24 26 28 30 32 34 36 38 40 42 44 46 48 50 52 54 56 58 60 62 64 66 68 70 72 74 76 78 80 82 84 86 88 90 92 94 96 98 100 102 104 106 108 110 112 114 116 118 120 122 124 126 128 130 132 134 136 
</DataArray>

</Lines>
</Piece>
</PolyData>
</VTKFile>
