<?xml version="1.0"?><VTKFile type="PolyData" version="0.1" byte_order="LittleEndian">
<PolyData>
<Piece NumberOfLines="219" NumberOfPoints="221">
<CellData Scalars=" CellData">
<DataArray type="Float32" Name="organtype" NumberOfComponents="1" format="ascii" >
2 2 2 2 2 2 2 2 2 2 2 2 2 2 2 2 2 2 2 2 4 4 4 4 4 4 4 4 4 4 4 4 4 4 4 4 4 4 4 4 4 4 4 4 4 4 4 4 4 4 4 4 4 4 4 4 4 4 4 8 8 8 8 8 8 8 8 8 8 8 8 8 8 8 8 8 8 8 8 8 8 8 8 8 8 8 8 8 8 8 8 8 8 8 8 8 8 8 8 8 8 8 8 4 4 4 4 4 4 4 4 4 4 4 4 4 4 8 8 8 8 8 8 8 8 8 8 8 8 8 8 8 8 8 8 8 8 8 8 8 8 8 8 8 8 8 8 8 8 8 8 8 8 8 8 8 8 8 8 8 8 4 4 4 4 4 4 4 4 4 4 4 4 4 4 8 8 8 8 8 8 8 8 8 8 8 8 8 8 8 8 8 8 8 8 8 8 8 8 8 8 8 8 8 8 8 8 8 8 8 8 8 8 8 8 8 8 8 8 
</DataArray>
<DataArray type="Float32" Name="id" NumberOfComponents="1" format="ascii" >
1 1 1 1 1 1 1 1 1 1 1 1 4 4 4 4 4 4 4 4 2 2 2 2 2 2 2 2 2 2 2 2 2 2 2 2 2 2 2 2 2 2 2 2 2 5 5 5 5 5 5 5 5 5 5 5 5 5 5 8 8 11 11 14 14 17 17 20 20 23 23 26 26 29 29 32 32 35 35 38 38 41 41 44 44 47 47 50 50 53 53 56 56 59 59 62 62 65 65 68 68 71 71 6 6 6 6 6 6 6 6 6 6 6 6 6 6 9 9 12 12 15 15 18 18 21 21 24 24 27 27 30 30 33 33 36 36 39 39 42 42 45 45 48 48 51 51 54 54 57 57 60 60 63 63 66 66 69 69 72 72 7 7 7 7 7 7 7 7 7 7 7 7 7 7 10 10 13 13 16 16 19 19 22 22 25 25 28 28 31 31 34 34 37 37 40 40 43 43 46 46 49 49 52 52 55 55 58 58 61 61 64 64 67 67 70 70 73 73 
</DataArray>
<DataArray type="Float32" Name="subtype" NumberOfComponents="1" format="ascii" >
1 1 1 1 1 1 1 1 1 1 1 1 3 3 3 3 3 3 3 3 1 1 1 1 1 1 1 1 1 1 1 1 1 1 1 1 1 1 1 1 1 1 1 1 1 3 3 3 3 3 3 3 3 3 3 3 3 3 3 3 3 3 3 3 3 3 3 3 3 3 3 3 3 3 3 3 3 3 3 3 3 3 3 3 3 3 3 3 3 3 3 3 3 3 3 3 3 3 3 3 3 3 3 3 3 3 3 3 3 3 3 3 3 3 3 3 3 3 3 3 3 3 3 3 3 3 3 3 3 3 3 3 3 3 3 3 3 3 3 3 3 3 3 3 3 3 3 3 3 3 3 3 3 3 3 3 3 3 3 3 3 3 3 3 3 3 3 3 3 3 3 3 3 3 3 3 3 3 3 3 3 3 3 3 3 3 3 3 3 3 3 3 3 3 3 3 3 3 3 3 3 3 3 3 3 3 3 3 3 3 3 3 3 3 3 3 3 3 3 
</DataArray>
<DataArray type="Float32" Name="emergencetime" NumberOfComponents="1" format="ascii" >
0.0580098 0.0580098 0.0580098 0.0580098 0.0580098 0.0580098 0.0580098 0.0580098 0.0580098 0.0580098 0.0580098 0.0580098 5.43133 5.43133 5.43133 5.43133 5.43133 5.43133 5.43133 5.43133 0.120947 0.120947 0.120947 0.120947 0.120947 0.120947 0.120947 0.120947 0.120947 0.120947 0.120947 0.120947 0.120947 0.120947 0.120947 0.120947 0.120947 0.120947 0.120947 0.120947 0.120947 0.120947 0.120947 0.120947 0.120947 0.566537 0.566537 0.566537 0.566537 0.566537 0.566537 0.566537 0.566537 0.566537 0.566537 0.566537 0.566537 0.566537 0.566537 28 28 36 36 45 45 55 55 66 66 78 78 91 91 105 105 120 120 136 136 153 153 171 171 190 190 210 210 231 231 253 253 276 276 300 300 325 325 351 351 378 378 406 406 1 1 1 1 1 1 1 1 1 1 1 1 1 1 28 28 36 36 45 45 55 55 66 66 78 78 91 91 105 105 120 120 136 136 153 153 171 171 190 190 210 210 231 231 253 253 276 276 300 300 325 325 351 351 378 378 406 406 3 3 3 3 3 3 3 3 3 3 3 3 3 3 28 28 36 36 45 45 55 55 66 66 78 78 91 91 105 105 120 120 136 136 153 153 171 171 190 190 210 210 231 231 253 253 276 276 300 300 325 325 351 351 378 378 406 406 
</DataArray>
<DataArray type="Float32" Name="pressure" NumberOfComponents="1" format="ascii" >
-699.87 -699.894 -699.919 -699.943 -699.967 -699.992 -700.016 -700.041 -700.065 -700.089 -700.114 -700.138 -699.96 -699.969 -699.98 -699.99 -700.001 -700.01 -700.018 -700.026 -700.33 -700.306 -700.281 -700.257 -700.232 -700.212 -700.188 -700.159 -700.135 -700.111 -700.086 -700.062 -700.038 -700.021 -699.996 -699.965 -699.94 -699.916 -699.891 -699.867 -699.842 -699.818 -699.793 -699.769 -699.749 -700.239 -700.228 -700.216 -700.205 -700.194 -700.182 -700.171 -700.16 -700.152 -700.145 -700.135 -700.124 -700.113 -700.104 -700.1 -700.1 -700.1 -700.1 -700.1 -700.1 -700.1 -700.1 -700.1 -700.1 -700.1 -700.1 -700.1 -700.1 -700.1 -700.1 -700.1 -700.1 -700.1 -700.1 -700.1 -700.1 -700.1 -700.1 -700.1 -700.1 -700.1 -700.1 -700.1 -700.1 -700.1 -700.1 -700.1 -700.1 -700.1 -700.1 -700.1 -700.1 -700.1 -700.1 -700.1 -700.1 -700.1 -700.1 -700.191 -700.167 -700.143 -700.118 -700.094 -700.069 -700.045 -700.021 -700.003 -699.989 -699.967 -699.942 -699.918 -699.898 -699.897 -699.903 -699.897 -699.903 -699.897 -699.903 -699.897 -699.903 -699.897 -699.903 -699.897 -699.903 -699.897 -699.903 -699.897 -699.903 -699.897 -699.903 -699.897 -699.903 -699.897 -699.903 -699.897 -699.903 -699.897 -699.903 -699.897 -699.903 -699.897 -699.903 -699.897 -699.903 -699.897 -699.903 -699.897 -699.903 -699.897 -699.903 -699.897 -699.903 -699.897 -699.903 -699.897 -699.903 -700.01 -699.999 -699.988 -699.977 -699.966 -699.955 -699.944 -699.933 -699.926 -699.919 -699.909 -699.898 -699.887 -699.878 -699.871 -699.866 -699.871 -699.866 -699.871 -699.866 -699.871 -699.866 -699.871 -699.866 -699.871 -699.866 -699.871 -699.866 -699.871 -699.866 -699.871 -699.866 -699.871 -699.866 -699.871 -699.866 -699.871 -699.866 -699.871 -699.866 -699.871 -699.866 -699.871 -699.866 -699.871 -699.866 -699.871 -699.866 -699.871 -699.866 -699.871 -699.866 -699.871 -699.866 -699.871 -699.866 -699.871 -699.866 
</DataArray>
<DataArray type="Float32" Name="axial_flux" NumberOfComponents="1" format="ascii" >
9.68082e-13 9.73546e-13 9.71826e-13 9.76842e-13 9.73087e-13 9.74398e-13 9.77539e-13 9.77349e-13 9.72383e-13 9.72549e-13 9.73268e-13 9.67225e-13 3.55749e-13 4.00884e-13 4.27206e-13 4.26662e-13 3.9768e-13 3.22501e-13 3.5419e-13 3.24345e-13 -9.8052e-13 -9.80271e-13 -9.8004e-13 -9.79829e-13 -9.76033e-13 -9.75885e-13 -9.77178e-13 -9.77018e-13 -9.76903e-13 -9.76806e-13 -9.76729e-13 -9.7667e-13 -9.76631e-13 -9.76613e-13 -9.79585e-13 -9.79601e-13 -9.79638e-13 -9.79695e-13 -9.79771e-13 -9.79866e-13 -9.7998e-13 -9.80114e-13 -9.80267e-13 -9.80439e-13 -9.8059e-13 -4.48716e-13 -4.48533e-13 -4.48358e-13 -4.48193e-13 -4.48036e-13 -4.47888e-13 -4.4775e-13 -4.4762e-13 -4.47533e-13 -4.47463e-13 -4.47365e-13 -4.47263e-13 -4.4717e-13 -4.47101e-13 -2.89069e-14 -2.88644e-14 -2.89069e-14 -2.88644e-14 -2.89069e-14 -2.88644e-14 -2.89069e-14 -2.88644e-14 -2.89069e-14 -2.88644e-14 -2.89069e-14 -2.88644e-14 -2.89069e-14 -2.88644e-14 -2.89069e-14 -2.88644e-14 -2.89069e-14 -2.88644e-14 -2.89069e-14 -2.88644e-14 -2.89069e-14 -2.88644e-14 -2.89069e-14 -2.88644e-14 -2.89069e-14 -2.88644e-14 -2.89069e-14 -2.88644e-14 -2.89069e-14 -2.88644e-14 -2.89069e-14 -2.88644e-14 -2.89069e-14 -2.88644e-14 -2.89069e-14 -2.88644e-14 -2.89069e-14 -2.88644e-14 -2.89069e-14 -2.88644e-14 -2.89069e-14 -2.88644e-14 -2.89069e-14 -2.88644e-14 -9.79128e-13 -9.78987e-13 -9.78865e-13 -9.78763e-13 -9.7868e-13 -9.78616e-13 -9.78571e-13 -9.78545e-13 -9.78536e-13 -9.78539e-13 -9.78556e-13 -9.78592e-13 -9.78647e-13 -9.78703e-13 4.47577e-13 4.47533e-13 4.47577e-13 4.47533e-13 4.47577e-13 4.47533e-13 4.47577e-13 4.47533e-13 4.47577e-13 4.47533e-13 4.47577e-13 4.47533e-13 4.47577e-13 4.47533e-13 4.47577e-13 4.47533e-13 4.47577e-13 4.47533e-13 4.47577e-13 4.47533e-13 4.47577e-13 4.47533e-13 4.47577e-13 4.47533e-13 4.47577e-13 4.47533e-13 4.47577e-13 4.47533e-13 4.47577e-13 4.47533e-13 4.47577e-13 4.47533e-13 4.47577e-13 4.47533e-13 4.47577e-13 4.47533e-13 4.47577e-13 4.47533e-13 4.47577e-13 4.47533e-13 4.47577e-13 4.47533e-13 4.47577e-13 4.47533e-13 -4.42229e-13 -4.42225e-13 -4.4223e-13 -4.42244e-13 -4.42266e-13 -4.42297e-13 -4.42337e-13 -4.42385e-13 -4.42423e-13 -4.4246e-13 -4.42521e-13 -4.42597e-13 -4.42681e-13 -4.42754e-13 -3.28968e-13 -3.29023e-13 -3.28968e-13 -3.29023e-13 -3.28968e-13 -3.29023e-13 -3.28968e-13 -3.29023e-13 -3.28968e-13 -3.29023e-13 -3.28968e-13 -3.29023e-13 -3.28968e-13 -3.29023e-13 -3.28968e-13 -3.29023e-13 -3.28968e-13 -3.29023e-13 -3.28968e-13 -3.29023e-13 -3.28968e-13 -3.29023e-13 -3.28968e-13 -3.29023e-13 -3.28968e-13 -3.29023e-13 -3.28968e-13 -3.29023e-13 -3.28968e-13 -3.29023e-13 -3.28968e-13 -3.29023e-13 -3.28968e-13 -3.29023e-13 -3.28968e-13 -3.29023e-13 -3.28968e-13 -3.29023e-13 -3.28968e-13 -3.29023e-13 -3.28968e-13 -3.29023e-13 -3.28968e-13 -3.29023e-13 
</DataArray>
<DataArray type="Float32" Name="radial_flux" NumberOfComponents="1" format="ascii" >
7.05748e-16 5.73825e-16 4.41657e-16 3.09275e-16 1.76816e-16 4.45283e-17 -8.80607e-17 -2.20852e-16 -3.53297e-16 -4.85423e-16 -6.17619e-16 -7.48257e-16 3.06211e-17 2.34235e-17 1.55466e-17 7.4248e-18 -4.15975e-19 -7.26592e-18 -1.37023e-17 -1.90024e-17 -2.07503e-15 -1.92107e-15 -1.76718e-15 -1.61337e-15 -1.46018e-15 -9.08682e-16 -1.55365e-15 -1.00181e-15 -8.48933e-16 -6.96085e-16 -5.43264e-16 -3.90465e-16 -2.37682e-16 -5.36865e-17 3.78186e-17 2.22587e-16 3.76303e-16 5.30034e-16 6.83786e-16 8.37565e-16 9.91377e-16 1.14523e-15 1.29912e-15 1.45307e-15 9.6531e-16 -2.25144e-15 -2.14493e-15 -2.0385e-15 -1.93215e-15 -1.82588e-15 -1.71969e-15 -1.61356e-15 -1.50749e-15 -5.73308e-16 -1.09575e-15 -1.27434e-15 -1.16845e-15 -1.0626e-15 -5.86772e-16 -5.32074e-17 -4.38208e-18 -6.17956e-17 -5.08939e-18 -6.28568e-17 -5.17679e-18 -5.21903e-17 -4.29831e-18 -6.15893e-17 -5.0724e-18 -6.18437e-17 -5.09335e-18 -6.88195e-17 -5.66787e-18 -6.53072e-17 -5.3786e-18 -6.787e-17 -5.58967e-18 -6.53271e-17 -5.38024e-18 -6.84965e-17 -5.64127e-18 -7.65489e-17 -6.30445e-18 -7.12239e-17 -5.86589e-18 -5.68123e-17 -4.67897e-18 -6.47178e-17 -5.33006e-18 -6.47875e-17 -5.3358e-18 -6.77064e-17 -5.5762e-18 -6.91551e-17 -5.6955e-18 -5.92327e-17 -4.87832e-18 -4.88303e-17 -4.02158e-18 -5.97148e-17 -4.91802e-18 -6.93591e-17 -5.71231e-18 -1.80454e-15 -1.57423e-15 -1.34398e-15 -1.11379e-15 -8.83638e-16 -6.53521e-16 -4.2343e-16 -1.93356e-16 -1.29236e-17 8.4584e-17 3.12793e-16 5.42875e-16 7.72978e-16 5.74247e-16 6.74966e-17 5.25344e-18 7.01888e-17 5.46298e-18 5.84444e-17 4.54887e-18 5.47948e-17 4.26482e-18 6.04535e-17 4.70525e-18 7.80189e-17 6.07241e-18 6.94585e-17 5.40613e-18 5.84118e-17 4.54634e-18 7.6123e-17 5.92485e-18 6.4591e-17 5.02728e-18 7.63997e-17 5.94638e-18 6.88873e-17 5.36168e-18 5.65483e-17 4.4013e-18 6.92317e-17 5.38848e-18 6.12087e-17 4.76403e-18 7.16563e-17 5.5772e-18 6.17939e-17 4.80958e-18 6.99529e-17 5.44461e-18 6.27331e-17 4.88268e-18 6.35879e-17 4.94921e-18 6.4375e-17 5.01047e-18 6.4622e-17 5.0297e-18 -9.53116e-17 8.18397e-18 1.1168e-16 2.1518e-16 3.18689e-16 4.2221e-16 5.25748e-16 6.29306e-16 2.80723e-16 6.11175e-16 8.57227e-16 9.60879e-16 1.06457e-15 6.88528e-16 7.46935e-17 6.38866e-18 7.68582e-17 6.5738e-18 9.23774e-17 7.90119e-18 8.33783e-17 7.13147e-18 8.07639e-17 6.90786e-18 7.10021e-17 6.07293e-18 8.55642e-17 7.31844e-18 7.71411e-17 6.598e-18 8.35671e-17 7.14762e-18 7.28826e-17 6.23376e-18 8.11888e-17 6.94421e-18 7.87778e-17 6.73799e-18 7.33292e-17 6.27196e-18 7.46626e-17 6.38601e-18 7.67762e-17 6.56679e-18 7.50549e-17 6.41957e-18 8.61531e-17 7.36881e-18 7.82746e-17 6.69495e-18 7.02533e-17 6.00888e-18 8.45174e-17 7.22891e-18 7.28794e-17 6.23349e-18 8.07029e-17 6.90265e-18 
</DataArray>
<DataArray type="Float32" Name="net_flux" NumberOfComponents="1" format="ascii" >
9.68787e-13 9.74119e-13 9.72268e-13 9.77151e-13 9.73264e-13 9.74442e-13 9.77451e-13 9.77129e-13 9.72029e-13 9.72063e-13 9.7265e-13 9.66476e-13 3.5578e-13 4.00908e-13 4.27222e-13 4.26669e-13 3.9768e-13 3.22494e-13 3.54176e-13 3.24326e-13 -9.82595e-13 -9.82192e-13 -9.81807e-13 -9.81442e-13 -9.77493e-13 -9.76794e-13 -9.78732e-13 -9.7802e-13 -9.77752e-13 -9.77502e-13 -9.77272e-13 -9.77061e-13 -9.76869e-13 -9.76667e-13 -9.79547e-13 -9.79378e-13 -9.79262e-13 -9.79165e-13 -9.79087e-13 -9.79028e-13 -9.78989e-13 -9.78969e-13 -9.78967e-13 -9.78985e-13 -9.79624e-13 -4.50967e-13 -4.50677e-13 -4.50397e-13 -4.50125e-13 -4.49862e-13 -4.49608e-13 -4.49363e-13 -4.49127e-13 -4.48106e-13 -4.48559e-13 -4.48639e-13 -4.48431e-13 -4.48232e-13 -4.47688e-13 -2.89601e-14 -2.88688e-14 -2.89687e-14 -2.88695e-14 -2.89698e-14 -2.88696e-14 -2.89591e-14 -2.88687e-14 -2.89685e-14 -2.88695e-14 -2.89687e-14 -2.88695e-14 -2.89757e-14 -2.88701e-14 -2.89722e-14 -2.88698e-14 -2.89748e-14 -2.887e-14 -2.89722e-14 -2.88698e-14 -2.89754e-14 -2.887e-14 -2.89835e-14 -2.88707e-14 -2.89781e-14 -2.88703e-14 -2.89637e-14 -2.88691e-14 -2.89716e-14 -2.88697e-14 -2.89717e-14 -2.88697e-14 -2.89746e-14 -2.887e-14 -2.89761e-14 -2.88701e-14 -2.89661e-14 -2.88693e-14 -2.89557e-14 -2.88684e-14 -2.89666e-14 -2.88693e-14 -2.89763e-14 -2.88701e-14 -9.80932e-13 -9.80561e-13 -9.80209e-13 -9.79877e-13 -9.79563e-13 -9.79269e-13 -9.78994e-13 -9.78738e-13 -9.78549e-13 -9.78455e-13 -9.78243e-13 -9.78049e-13 -9.77874e-13 -9.78128e-13 4.47645e-13 4.47539e-13 4.47647e-13 4.47539e-13 4.47636e-13 4.47538e-13 4.47632e-13 4.47538e-13 4.47638e-13 4.47538e-13 4.47655e-13 4.4754e-13 4.47647e-13 4.47539e-13 4.47636e-13 4.47538e-13 4.47653e-13 4.47539e-13 4.47642e-13 4.47538e-13 4.47654e-13 4.47539e-13 4.47646e-13 4.47539e-13 4.47634e-13 4.47538e-13 4.47646e-13 4.47539e-13 4.47638e-13 4.47538e-13 4.47649e-13 4.47539e-13 4.47639e-13 4.47538e-13 4.47647e-13 4.47539e-13 4.4764e-13 4.47538e-13 4.47641e-13 4.47538e-13 4.47642e-13 4.47538e-13 4.47642e-13 4.47538e-13 -4.42324e-13 -4.42217e-13 -4.42119e-13 -4.42029e-13 -4.41948e-13 -4.41875e-13 -4.41811e-13 -4.41755e-13 -4.42142e-13 -4.41849e-13 -4.41664e-13 -4.41636e-13 -4.41617e-13 -4.42066e-13 -3.28894e-13 -3.29017e-13 -3.28891e-13 -3.29017e-13 -3.28876e-13 -3.29015e-13 -3.28885e-13 -3.29016e-13 -3.28887e-13 -3.29016e-13 -3.28897e-13 -3.29017e-13 -3.28883e-13 -3.29016e-13 -3.28891e-13 -3.29017e-13 -3.28885e-13 -3.29016e-13 -3.28895e-13 -3.29017e-13 -3.28887e-13 -3.29016e-13 -3.28889e-13 -3.29017e-13 -3.28895e-13 -3.29017e-13 -3.28894e-13 -3.29017e-13 -3.28891e-13 -3.29017e-13 -3.28893e-13 -3.29017e-13 -3.28882e-13 -3.29016e-13 -3.2889e-13 -3.29017e-13 -3.28898e-13 -3.29017e-13 -3.28884e-13 -3.29016e-13 -3.28895e-13 -3.29017e-13 -3.28888e-13 -3.29016e-13 
</DataArray>

</CellData>
<Points>
<DataArray type="Float32" Name="Coordinates" NumberOfComponents="3" format="ascii" >
0 0 -3 -0.0141436 0.0372201 -3.24681 -0.0420231 0.0475578 -3.49503 -0.071155 0.031948 -3.74284 -0.0921887 0.0291843 -3.99194 -0.121242 0.0206552 -4.2401 -0.11011 0.0456531 -4.4886 -0.102423 0.0627263 -4.73789 -0.0859393 0.0730118 -4.98714 -0.0543728 0.0690287 -5.2351 -0.0232077 0.0637611 -5.4831 0.00707555 0.062738 -5.73126 0.0399171 0.0874198 -5.97748 -0.289361 -0.0949093 -4.08262 -0.486476 -0.209804 -4.18482 -0.653676 -0.360408 -4.29374 -0.819815 -0.512278 -4.40252 -1.0341 -0.591656 -4.50391 -1.24373 -0.700265 -4.58614 -1.4557 -0.797292 -4.67644 -1.64093 -0.923484 -4.75499 0 0 -3 0 0 -2.75 0 0 -2.5 0 0 -2.25 0 0 -2 0 0 -1.75 0 0 -1.57943 0 0 -1.25 0 0 -1 0 0 -0.75 0 0 -0.5 0 0 -0.25 0 0 0 0 0 0.25 0 0 0.353509 0 0 0.75 0 0 1 0 0 1.25 0 0 1.5 0 0 1.75 0 0 2 0 0 2.25 0 0 2.5 0 0 2.75 0 0 3 0 0 3.15301 0.198473 -0.101127 -1.8865 0.396946 -0.202254 -1.773 0.595419 -0.303381 -1.65951 0.793893 -0.404508 -1.54601 0.992366 -0.505636 -1.43251 1.19084 -0.606763 -1.31901 1.38931 -0.70789 -1.20552 1.58779 -0.809017 -1.09202 1.66717 -0.849468 -1.04662 1.82595 -0.93037 -0.955822 2.02443 -1.0315 -0.842324 2.2229 -1.13262 -0.728827 2.42137 -1.23375 -0.615329 2.54046 -1.29443 -0.54723 2.77253 -1.20177 -0.539873 2.79172 -1.19411 -0.539264 2.77253 -1.20177 -0.539873 2.79172 -1.19411 -0.539264 2.77253 -1.20177 -0.539873 2.79172 -1.19411 -0.539264 2.77253 -1.20177 -0.539873 2.79172 -1.19411 -0.539264 2.77253 -1.20177 -0.539873 2.79172 -1.19411 -0.539264 2.77253 -1.20177 -0.539873 2.79172 -1.19411 -0.539264 2.77253 -1.20177 -0.539873 2.79172 -1.19411 -0.539264 2.77253 -1.20177 -0.539873 2.79172 -1.19411 -0.539264 2.77253 -1.20177 -0.539873 2.79172 -1.19411 -0.539264 2.77253 -1.20177 -0.539873 2.79172 -1.19411 -0.539264 2.77253 -1.20177 -0.539873 2.79172 -1.19411 -0.539264 2.77253 -1.20177 -0.539873 2.79172 -1.19411 -0.539264 2.77253 -1.20177 -0.539873 2.79172 -1.19411 -0.539264 2.77253 -1.20177 -0.539873 2.79172 -1.19411 -0.539264 2.77253 -1.20177 -0.539873 2.79172 -1.19411 -0.539264 2.77253 -1.20177 -0.539873 2.79172 -1.19411 -0.539264 2.77253 -1.20177 -0.539873 2.79172 -1.19411 -0.539264 2.77253 -1.20177 -0.539873 2.79172 -1.19411 -0.539264 2.77253 -1.20177 -0.539873 2.79172 -1.19411 -0.539264 2.77253 -1.20177 -0.539873 2.79172 -1.19411 -0.539264 2.77253 -1.20177 -0.539873 2.79172 -1.19411 -0.539264 2.77253 -1.20177 -0.539873 2.79172 -1.19411 -0.539264 1.67167e-17 -2.72792e-17 -1.32943 3.34334e-17 -5.45584e-17 -1.07943 5.01502e-17 -8.18376e-17 -0.829432 6.68669e-17 -1.09117e-16 -0.579432 8.35836e-17 -1.36396e-16 -0.329432 1.003e-16 -1.63675e-16 -0.079432 1.17017e-16 -1.90954e-16 0.170568 1.33734e-16 -2.18234e-16 0.420568 1.4042e-16 -2.29145e-16 0.520568 1.53794e-16 -2.50969e-16 0.720568 1.70511e-16 -2.78248e-16 0.970568 1.87227e-16 -3.05527e-16 1.22057 2.03944e-16 -3.32806e-16 1.47057 2.13974e-16 -3.49174e-16 1.62057 -0.179048 -0.132005 1.50648 -0.193852 -0.14292 1.49704 -0.179048 -0.132005 1.50648 -0.193852 -0.14292 1.49704 -0.179048 -0.132005 1.50648 -0.193852 -0.14292 1.49704 -0.179048 -0.132005 1.50648 -0.193852 -0.14292 1.49704 -0.179048 -0.132005 1.50648 -0.193852 -0.14292 1.49704 -0.179048 -0.132005 1.50648 -0.193852 -0.14292 1.49704 -0.179048 -0.132005 1.50648 -0.193852 -0.14292 1.49704 -0.179048 -0.132005 1.50648 -0.193852 -0.14292 1.49704 -0.179048 -0.132005 1.50648 -0.193852 -0.14292 1.49704 -0.179048 -0.132005 1.50648 -0.193852 -0.14292 1.49704 -0.179048 -0.132005 1.50648 -0.193852 -0.14292 1.49704 -0.179048 -0.132005 1.50648 -0.193852 -0.14292 1.49704 -0.179048 -0.132005 1.50648 -0.193852 -0.14292 1.49704 -0.179048 -0.132005 1.50648 -0.193852 -0.14292 1.49704 -0.179048 -0.132005 1.50648 -0.193852 -0.14292 1.49704 -0.179048 -0.132005 1.50648 -0.193852 -0.14292 1.49704 -0.179048 -0.132005 1.50648 -0.193852 -0.14292 1.49704 -0.179048 -0.132005 1.50648 -0.193852 -0.14292 1.49704 -0.179048 -0.132005 1.50648 -0.193852 -0.14292 1.49704 -0.179048 -0.132005 1.50648 -0.193852 -0.14292 1.49704 -0.179048 -0.132005 1.50648 -0.193852 -0.14292 1.49704 -0.179048 -0.132005 1.50648 -0.193852 -0.14292 1.49704 -0.198473 0.101127 0.467007 -0.396946 0.202254 0.580504 -0.595419 0.303381 0.694002 -0.793893 0.404508 0.807499 -0.992366 0.505636 0.920997 -1.19084 0.606763 1.03449 -1.38931 0.70789 1.14799 -1.58779 0.809017 1.26149 -1.66717 0.849468 1.30689 -1.82595 0.93037 1.39769 -2.02443 1.0315 1.51118 -2.2229 1.13262 1.62468 -2.42137 1.23375 1.73818 -2.54046 1.29443 1.80628 -2.45428 1.5136 1.89016 -2.44716 1.53173 1.89709 -2.45428 1.5136 1.89016 -2.44716 1.53173 1.89709 -2.45428 1.5136 1.89016 -2.44716 1.53173 1.89709 -2.45428 1.5136 1.89016 -2.44716 1.53173 1.89709 -2.45428 1.5136 1.89016 -2.44716 1.53173 1.89709 -2.45428 1.5136 1.89016 -2.44716 1.53173 1.89709 -2.45428 1.5136 1.89016 -2.44716 1.53173 1.89709 -2.45428 1.5136 1.89016 -2.44716 1.53173 1.89709 -2.45428 1.5136 1.89016 -2.44716 1.53173 1.89709 -2.45428 1.5136 1.89016 -2.44716 1.53173 1.89709 -2.45428 1.5136 1.89016 -2.44716 1.53173 1.89709 -2.45428 1.5136 1.89016 -2.44716 1.53173 1.89709 -2.45428 1.5136 1.89016 -2.44716 1.53173 1.89709 -2.45428 1.5136 1.89016 -2.44716 1.53173 1.89709 -2.45428 1.5136 1.89016 -2.44716 1.53173 1.89709 -2.45428 1.5136 1.89016 -2.44716 1.53173 1.89709 -2.45428 1.5136 1.89016 -2.44716 1.53173 1.89709 -2.45428 1.5136 1.89016 -2.44716 1.53173 1.89709 -2.45428 1.5136 1.89016 -2.44716 1.53173 1.89709 -2.45428 1.5136 1.89016 -2.44716 1.53173 1.89709 -2.45428 1.5136 1.89016 -2.44716 1.53173 1.89709 -2.45428 1.5136 1.89016 -2.44716 1.53173 1.89709 
</DataArray>
</Points>
<Lines>
<DataArray type="Int32" Name="connectivity" NumberOfComponents="1" format="ascii" >
0 1 1 2 2 3 3 4 4 5 5 6 6 7 7 8 8 9 9 10 10 11 11 12 4 13 13 14 14 15 15 16 16 17 17 18 18 19 19 20 21 22 22 23 23 24 24 25 25 26 26 27 27 28 28 29 29 30 30 31 31 32 32 33 33 34 34 35 35 36 36 37 37 38 38 39 39 40 40 41 41 42 42 43 43 44 44 45 45 46 25 47 47 48 48 49 49 50 50 51 51 52 52 53 53 54 54 55 55 56 56 57 57 58 58 59 59 60 60 61 61 62 60 63 63 64 60 65 65 66 60 67 67 68 60 69 69 70 60 71 71 72 60 73 73 74 60 75 75 76 60 77 77 78 60 79 79 80 60 81 81 82 60 83 83 84 60 85 85 86 60 87 87 88 60 89 89 90 60 91 91 92 60 93 93 94 60 95 95 96 60 97 97 98 60 99 99 100 60 101 101 102 60 103 103 104 27 105 105 106 106 107 107 108 108 109 109 110 110 111 111 112 112 113 113 114 114 115 115 116 116 117 117 118 118 119 119 120 118 121 121 122 118 123 123 124 118 125 125 126 118 127 127 128 118 129 129 130 118 131 131 132 118 133 133 134 118 135 135 136 118 137 137 138 118 139 139 140 118 141 141 142 118 143 143 144 118 145 145 146 118 147 147 148 118 149 149 150 118 151 151 152 118 153 153 154 118 155 155 156 118 157 157 158 118 159 159 160 118 161 161 162 35 163 163 164 164 165 165 166 166 167 167 168 168 169 169 170 170 171 171 172 172 173 173 174 174 175 175 176 176 177 177 178 176 179 179 180 176 181 181 182 176 183 183 184 176 185 185 186 176 187 187 188 176 189 189 190 176 191 191 192 176 193 193 194 176 195 195 196 176 197 197 198 176 199 199 200 176 201 201 202 176 203 203 204 176 205 205 206 176 207 207 208 176 209 209 210 176 211 211 212 176 213 213 214 176 215 215 216 176 217 217 218 176 219 219 220 
</DataArray>
<DataArray type="Int32" Name="offsets" NumberOfComponents="1" format="ascii" >
2 4 6 8 10 12 14 16 18 20 22 24 26 28 30 32 34 36 38 40 42 44 46 48 50 52 54 56 58 60 62 64 66 68 70 72 74 76 78 80 82 84 86 88 90 92 94 96 98 100 102 104 106 108 110 112 114 116 118 120 122 124 126 128 130 132 134 136 138 140 142 144 146 148 150 152 154 156 158 160 162 164 166 168 170 172 174 176 178 180 182 184 186 188 190 192 194 196 198 200 202 204 206 208 210 212 214 216 218 220 222 224 226 228 230 232 234 236 238 240 242 244 246 248 250 252 254 256 258 260 262 264 266 268 270 272 274 276 278 280 282 284 286 288 290 292 294 296 298 300 302 304 306 308 310 312 314 316 318 320 322 324 326 328 330 332 334 336 338 340 342 344 346 348 350 352 354 356 358 360 362 364 366 368 370 372 374 376 378 380 382 384 386 388 390 392 394 396 398 400 402 404 406 408 410 412 414 416 418 420 422 424 426 428 430 432 434 436 438 
</DataArray>

</Lines>
</Piece>
</PolyData>
</VTKFile>
