<?xml version="1.0"?><VTKFile type="PolyData" version="0.1" byte_order="LittleEndian">
<PolyData>
<Piece NumberOfLines="946" NumberOfPoints="948">
<CellData Scalars=" CellData">
<DataArray type="Float32" Name="pressure" NumberOfComponents="1" format="ascii" >
-698.975 -698.986 -698.997 -699.007 -699.018 -699.029 -699.04 -699.051 -699.061 -699.071 -699.082 -699.094 -699.106 -699.118 -699.123 -699.127 -699.133 -699.135 -699.138 -699.143 -699.146 -699.15 -699.159 -699.173 -699.187 -699.195 -699.202 -699.218 -699.236 -699.252 -699.26 -699.269 -699.286 -699.295 -699.304 -699.322 -699.34 -699.358 -699.378 -699.397 -699.417 -699.438 -699.458 -699.478 -699.489 -699.499 -699.519 -699.539 -699.559 -699.579 -699.598 -699.608 -699.618 -699.638 -699.648 -699.657 -699.677 -699.696 -699.715 -699.724 -699.733 -699.752 -699.762 -699.771 -699.79 -699.809 -699.827 -699.837 -699.846 -699.864 -699.882 -699.901 -699.92 -699.939 -699.958 -699.977 -699.987 -699.996 -700.016 -700.035 -700.054 -700.074 -700.093 -700.103 -700.112 -700.132 -700.151 -700.171 -700.18 -700.189 -700.208 -700.227 -700.247 -700.257 -700.266 -700.286 -700.296 -700.306 -700.325 -700.334 -700.344 -700.36 -700.374 -700.387 -700.398 -700.409 -700.414 -700.42 -700.432 -700.437 -700.443 -700.455 -700.46 -700.466 -700.479 -700.491 -700.503 -700.509 -700.516 -700.531 -700.546 -700.561 -700.569 -700.576 -700.59 -700.605 -700.617 -700.623 -700.629 -700.643 -700.66 -700.678 -700.697 -700.718 -700.739 -700.76 -700.771 -700.781 -700.803 -700.813 -700.824 -700.845 -700.855 -700.865 -700.886 -700.907 -700.929 -700.94 -700.95 -700.972 -700.983 -700.993 -701.015 -701.025 -701.036 -701.058 -701.069 -701.08 -701.102 -701.113 -701.124 -701.145 -701.156 -701.167 -701.189 -701.211 -701.233 -701.254 -701.276 -701.297 -701.319 -701.33 -701.341 -701.363 -701.373 -701.385 -701.407 -701.418 -701.429 -701.45 -701.461 -701.472 -701.495 -701.518 -701.541 -701.564 -701.588 -701.611 -701.634 -701.657 -701.681 -701.705 -701.728 -701.74 -701.752 -701.775 -701.799 -701.823 -701.847 -701.871 -701.895 -701.919 -701.931 -701.932 -699.061 -699.07 -699.079 -699.09 -699.097 -699.103 -699.088 -699.112 -699.136 -699.16 -699.184 -699.207 -699.23 -699.254 -699.278 -699.302 -699.325 -699.342 -699.104 -699.111 -699.121 -699.133 -699.144 -699.152 -699.128 -699.138 -699.151 -699.164 -699.176 -699.183 -699.136 -699.138 -699.14 -699.138 -699.133 -699.13 -699.137 -699.118 -699.098 -699.08 -699.065 -699.051 -699.037 -699.022 -699.01 -699.166 -699.167 -699.17 -699.174 -699.177 -699.18 -699.193 -699.189 -699.184 -699.177 -699.168 -699.162 -699.234 -699.246 -699.259 -699.271 -699.283 -699.291 -699.27 -699.29 -699.309 -699.327 -699.346 -699.36 -699.304 -699.324 -699.343 -699.358 -699.374 -699.392 -699.41 -699.426 -699.435 -699.331 -699.333 -699.336 -699.337 -699.335 -699.369 -699.371 -699.372 -699.372 -699.374 -699.376 -699.378 -699.381 -699.383 -699.407 -699.409 -699.412 -699.414 -699.412 -699.45 -699.457 -699.465 -699.473 -699.48 -699.485 -699.492 -699.5 -699.508 -699.518 -699.528 -699.535 -699.533 -699.539 -699.544 -699.552 -699.562 -699.577 -699.594 -699.611 -699.627 -699.645 -699.663 -699.68 -699.697 -699.713 -699.612 -699.62 -699.625 -699.627 -699.629 -699.631 -699.651 -699.66 -699.668 -699.676 -699.685 -699.689 -699.689 -699.69 -699.698 -699.704 -699.706 -699.708 -699.727 -699.736 -699.746 -699.757 -699.768 -699.779 -699.789 -699.793 -699.767 -699.778 -699.788 -699.796 -699.8 -699.805 -699.811 -699.817 -699.805 -699.816 -699.827 -699.838 -699.844 -699.842 -699.852 -699.862 -699.872 -699.878 -699.874 -699.877 -699.881 -699.886 -699.89 -699.891 -699.913 -699.917 -699.922 -699.93 -699.938 -699.951 -699.962 -699.954 -699.961 -699.964 -699.967 -699.969 -699.989 -699.994 -699.999 -700.005 -700.011 -700.014 -700.014 -700.031 -700.042 -700.05 -700.057 -700.068 -700.077 -700.088 -700.098 -700.109 -700.118 -700.123 -700.106 -700.111 -700.115 -700.117 -700.146 -700.155 -700.165 -700.176 -700.183 -700.185 -700.195 -700.207 -700.216 -700.224 -700.233 -700.237 -700.224 -700.234 -700.242 -700.249 -700.259 -700.264 -700.27 -700.274 -700.299 -700.306 -700.314 -700.319 -700.323 -700.326 -700.337 -700.341 -700.346 -700.351 -700.355 -700.373 -700.386 -700.4 -700.415 -700.391 -700.384 -700.376 -700.369 -700.365 -700.411 -700.402 -700.392 -700.433 -700.425 -700.417 -700.456 -700.447 -700.439 -700.435 -700.481 -700.471 -700.459 -700.452 -700.509 -700.509 -700.509 -700.547 -700.564 -700.582 -700.595 -700.573 -700.583 -700.593 -700.594 -700.588 -700.583 -700.624 -700.626 -700.628 -700.649 -700.645 -700.635 -700.629 -700.696 -700.71 -700.718 -700.73 -700.732 -700.732 -700.775 -700.784 -700.788 -700.818 -700.826 -700.857 -700.859 -700.898 -700.9 -700.944 -700.95 -700.985 -701.028 -701.071 -701.114 -701.157 -701.2 -702.37 -702.345 -702.321 -702.297 -702.272 -702.248 -702.224 -702.201 -702.177 -702.153 -702.129 -702.106 -702.082 -702.059 -702.036 -702.012 -701.989 -701.966 -701.943 -701.92 -701.898 -701.875 -701.852 -701.829 -701.807 -701.784 -701.762 -701.74 -701.717 -701.695 -701.673 -701.651 -701.629 -701.607 -701.585 -701.563 -701.542 -701.52 -701.498 -701.477 -701.455 -701.434 -701.413 -701.391 -701.37 -701.349 -701.327 -701.306 -701.285 -701.264 -701.243 -701.222 -701.201 -701.181 -701.16 -701.139 -701.118 -701.098 -701.077 -701.057 -701.036 -701.016 -700.995 -700.975 -700.954 -700.934 -700.914 -700.893 -700.873 -700.853 -700.833 -700.813 -700.793 -700.773 -700.753 -700.733 -700.713 -700.693 -700.673 -700.653 -700.633 -700.613 -700.593 -700.574 -700.554 -700.534 -700.514 -700.495 -700.475 -700.455 -700.436 -700.416 -700.396 -700.377 -700.357 -700.338 -700.318 -700.299 -700.279 -700.259 -700.24 -700.22 -700.201 -700.181 -700.162 -700.143 -700.123 -700.104 -700.084 -700.065 -700.045 -700.026 -700.006 -699.987 -699.967 -699.948 -699.929 -699.909 -699.89 -699.87 -699.85 -699.829 -699.808 -699.787 -699.776 -699.766 -699.745 -699.724 -699.702 -699.681 -699.66 -699.639 -699.618 -699.607 -699.596 -699.572 -699.549 -699.526 -699.502 -699.479 -699.455 -699.432 -699.408 -699.385 -699.361 -699.338 -699.314 -699.291 -699.267 -699.243 -699.22 -699.196 -699.172 -699.148 -699.124 -699.101 -699.077 -699.053 -699.029 -699.005 -698.981 -698.957 -698.932 -698.908 -698.884 -698.864 -699.854 -699.842 -699.83 -699.818 -699.807 -699.797 -699.787 -699.777 -699.767 -699.757 -699.747 -699.737 -699.727 -699.717 -699.706 -699.696 -699.686 -699.675 -699.669 -699.806 -699.795 -699.783 -699.771 -699.76 -699.748 -699.737 -699.73 -699.796 -699.785 -699.773 -699.762 -699.75 -699.738 -699.727 -699.787 -699.775 -699.763 -699.752 -699.74 -699.729 -699.718 -699.777 -699.765 -699.754 -699.742 -699.73 -699.719 -699.709 -699.767 -699.755 -699.744 -699.732 -699.72 -699.709 -699.7 -699.757 -699.745 -699.734 -699.722 -699.71 -699.699 -699.691 -699.747 -699.735 -699.724 -699.712 -699.7 -699.689 -699.682 -699.737 -699.725 -699.713 -699.702 -699.69 -699.679 -699.726 -699.715 -699.703 -699.692 -699.68 -699.67 -699.716 -699.705 -699.693 -699.681 -699.67 -699.661 -699.706 -699.694 -699.683 -699.671 -699.659 -699.652 -699.695 -699.684 -699.672 -699.661 -699.649 -699.643 -699.685 -699.673 -699.662 -699.65 -699.64 -699.675 -699.663 -699.651 -699.64 -699.631 -699.664 -699.652 -699.641 -699.629 -699.622 -699.856 -699.847 -699.838 -699.829 -699.819 -699.809 -699.799 -699.789 -699.778 -699.768 -699.757 -699.746 -699.735 -699.724 -699.713 -699.701 -699.688 -699.676 -699.662 -699.649 -699.636 -699.623 -699.609 -699.595 -699.581 -699.567 -699.553 -699.539 -699.524 -699.51 -699.495 -699.479 -699.463 -699.447 -699.602 -699.59 -699.578 -699.567 -699.556 -699.547 -699.537 -699.527 -699.517 -699.508 -699.498 -699.487 -699.477 -699.467 -699.456 -699.448 -699.555 -699.544 -699.532 -699.52 -699.509 -699.497 -699.488 -699.546 -699.534 -699.523 -699.511 -699.499 -699.488 -699.479 -699.536 -699.525 -699.513 -699.501 -699.49 -699.478 -699.471 -699.526 -699.515 -699.503 -699.492 -699.48 -699.469 -699.462 -699.517 -699.505 -699.494 -699.482 -699.47 -699.459 -699.453 -699.507 -699.495 -699.484 -699.472 -699.461 -699.45 -699.497 -699.485 -699.474 -699.462 -699.451 -699.441 -699.487 -699.475 -699.464 -699.452 -699.44 -699.432 -699.477 -699.465 -699.453 -699.442 -699.43 -699.423 -699.466 -699.455 -699.443 -699.432 -699.42 -699.414 -699.456 -699.444 -699.433 -699.421 -699.411 -699.445 -699.434 -699.422 -699.411 -699.402 -699.603 -699.594 -699.584 -699.574 -699.565 -699.555 -699.545 -699.535 -699.524 -699.513 -699.502 -699.491 -699.48 -699.468 -699.456 -699.445 -699.433 -699.421 -699.408 -699.396 -699.383 -699.37 -699.356 -699.343 -699.329 -699.319 -698.938 -698.925 -698.915 -698.94 -698.93 -698.92 -698.914 
</DataArray>
<DataArray type="Float32" Name="axial_flux" NumberOfComponents="1" format="ascii" >
4.31621e-13 4.09125e-13 4.36797e-13 4.33562e-13 4.45022e-13 4.45482e-13 4.44583e-13 4.37271e-13 4.05811e-13 3.99816e-13 4.62367e-13 5.27366e-13 5.34258e-13 4.38111e-13 4.37952e-13 3.27455e-13 2.20172e-13 2.1986e-13 2.3376e-13 2.87966e-13 2.87068e-13 3.05456e-13 5.45747e-13 6.0321e-13 6.47428e-13 6.46919e-13 6.39591e-13 7.79604e-13 7.41306e-13 6.73618e-13 6.73506e-13 7.47093e-13 7.55339e-13 7.54919e-13 7.94959e-13 8.00097e-13 7.86287e-13 8.15049e-13 8.53531e-13 8.63536e-13 8.89978e-13 8.93851e-13 8.96906e-13 8.99586e-13 8.99382e-13 8.95287e-13 8.96457e-13 8.94881e-13 8.64813e-13 8.74133e-13 8.78974e-13 8.78888e-13 8.78448e-13 8.74304e-13 8.74145e-13 8.6828e-13 8.71205e-13 8.49881e-13 8.37989e-13 8.37802e-13 8.5745e-13 8.53443e-13 8.53453e-13 8.53712e-13 8.47436e-13 8.4622e-13 8.45988e-13 8.45837e-13 8.34643e-13 8.24364e-13 8.33746e-13 8.5524e-13 8.5826e-13 8.78093e-13 8.65089e-13 8.65609e-13 8.65718e-13 8.57456e-13 8.70759e-13 8.6811e-13 8.78911e-13 8.79578e-13 8.77821e-13 8.77812e-13 8.80064e-13 8.80601e-13 8.69071e-13 8.63244e-13 8.63384e-13 8.17789e-13 8.79312e-13 8.80987e-13 8.75998e-13 8.76103e-13 8.80302e-13 8.8265e-13 8.82788e-13 8.70963e-13 8.51632e-13 8.5144e-13 8.37627e-13 6.5906e-13 6.22917e-13 5.75537e-13 4.90369e-13 5.58553e-13 5.58594e-13 5.59036e-13 5.09432e-13 5.09676e-13 5.86488e-13 5.27485e-13 5.27554e-13 5.66356e-13 5.86142e-13 5.69221e-13 5.45962e-13 5.46375e-13 6.45189e-13 6.83469e-13 6.91866e-13 6.9409e-13 6.94156e-13 6.3224e-13 6.7657e-13 6.11409e-13 5.21852e-13 5.22006e-13 5.8345e-13 6.94982e-13 7.69543e-13 8.20173e-13 8.53533e-13 9.05217e-13 9.06932e-13 9.14468e-13 9.14726e-13 9.17742e-13 9.07266e-13 9.07645e-13 9.08971e-13 8.87637e-13 8.87964e-13 8.80017e-13 8.91483e-13 9.16969e-13 9.07616e-13 9.07904e-13 9.11054e-13 9.14183e-13 9.14518e-13 9.10994e-13 8.94975e-13 8.95375e-13 9.12249e-13 9.15959e-13 9.16379e-13 9.25347e-13 9.23785e-13 9.24231e-13 9.02104e-13 9.02014e-13 9.02522e-13 9.09248e-13 9.24407e-13 9.27885e-13 9.02639e-13 8.98704e-13 8.97813e-13 8.98121e-13 9.01923e-13 9.0282e-13 9.05779e-13 9.01945e-13 9.02342e-13 9.28457e-13 9.00838e-13 9.01486e-13 8.99851e-13 9.00782e-13 9.01348e-13 9.18176e-13 9.3953e-13 9.48347e-13 9.48849e-13 9.52313e-13 9.42612e-13 9.33417e-13 9.62382e-13 9.6385e-13 9.62477e-13 9.55276e-13 9.49379e-13 9.50037e-13 9.52013e-13 9.59031e-13 9.53209e-13 9.54305e-13 9.68405e-13 9.70398e-13 9.76084e-13 9.7666e-13 9.77433e-13 9.74917e-13 3.52303e-13 3.57966e-13 3.91335e-13 4.22012e-13 1.74427e-13 3.93396e-13 9.78173e-13 9.28281e-13 9.50105e-13 9.4921e-13 9.42387e-13 9.38159e-13 9.09221e-13 9.55143e-13 9.68667e-13 9.26639e-13 9.51742e-13 9.30304e-13 3.03153e-13 3.09024e-13 4.56156e-13 4.60591e-13 4.85211e-13 3.48047e-13 3.63937e-13 4.85797e-13 5.44154e-13 5.08054e-13 4.0496e-13 4.16924e-13 8.82643e-14 7.35723e-14 5.15829e-14 -2.0528e-13 -2.01463e-13 -2.26366e-14 -7.41771e-13 -7.83228e-13 -8.26607e-13 -6.14605e-13 -6.01547e-13 -5.41042e-13 -5.62288e-13 -6.62031e-13 -6.49358e-13 9.09882e-15 7.84348e-14 1.71241e-13 1.16139e-13 1.54072e-13 1.98326e-13 -1.51326e-13 -1.42401e-13 -2.81284e-13 -3.06884e-13 -3.74564e-13 -3.42863e-13 5.0629e-13 4.95923e-13 4.81938e-13 4.98513e-13 4.6417e-13 2.73439e-13 8.08005e-13 7.44943e-13 7.63156e-13 7.48724e-13 7.50015e-13 7.06202e-13 7.42356e-13 8.37189e-13 6.60324e-13 5.75693e-13 7.03226e-13 7.46365e-13 6.54564e-13 6.55733e-13 6.9997e-13 -1.79325e-15 1.42831e-13 1.12685e-13 -6.02955e-14 -7.3305e-14 7.38783e-14 7.99772e-14 -2.16128e-14 7.52584e-14 7.36714e-14 7.38338e-14 8.90097e-14 1.17563e-13 1.32036e-13 -2.94304e-15 1.44065e-13 1.21464e-13 -1.19236e-14 -1.14697e-13 2.14314e-13 3.1103e-13 3.04906e-13 3.16776e-13 3.13374e-13 3.1323e-13 2.84352e-13 3.08066e-13 3.51829e-13 4.37478e-13 4.0148e-13 3.87021e-13 3.06659e-13 1.81762e-13 2.32494e-13 4.00931e-13 4.72078e-13 6.62289e-13 6.94479e-13 6.17574e-13 7.16907e-13 7.16341e-13 6.91456e-13 6.82151e-13 6.38751e-13 6.47212e-13 3.18337e-13 3.21377e-13 6.86678e-14 8.01727e-14 9.48191e-14 5.94106e-14 2.77205e-13 4.56587e-13 1.56975e-13 4.51381e-13 3.19911e-13 -1.07108e-14 -3.65247e-14 2.91247e-13 3.5153e-13 1.08918e-13 7.98047e-14 2.01006e-13 2.84522e-13 3.83752e-13 4.34101e-13 4.33603e-13 4.30525e-13 4.84973e-13 3.01381e-13 3.0479e-13 4.18014e-13 4.18841e-13 4.22729e-13 1.77017e-13 1.76201e-13 1.8599e-13 3.47446e-13 3.80756e-13 4.47011e-13 4.40594e-13 4.37896e-13 4.37105e-13 4.3488e-13 4.39711e-13 3.24289e-13 4.47269e-13 3.63288e-13 3.64568e-13 7.39869e-14 1.50176e-13 1.76464e-13 2.28026e-13 8.67201e-14 2.84872e-14 1.99149e-13 1.36558e-13 2.72819e-13 3.11716e-13 3.79502e-13 6.07382e-13 6.50471e-13 3.75109e-13 2.00193e-13 1.00734e-13 1.132e-13 5.15927e-14 1.81836e-13 1.82172e-13 2.3085e-13 2.77147e-13 2.07688e-13 6.73021e-15 1.28619e-14 4.87398e-13 3.44504e-13 3.10873e-13 2.93201e-13 3.1422e-13 4.26105e-13 4.256e-13 4.31488e-13 4.28375e-13 3.26082e-13 3.17634e-13 2.46393e-13 1.86263e-13 1.06419e-13 7.8296e-14 3.68796e-13 3.19773e-13 4.5073e-13 4.60458e-13 4.26588e-13 3.76227e-13 4.75312e-13 4.78697e-13 2.48948e-13 3.74361e-13 3.29915e-13 2.85584e-13 4.84555e-13 3.35569e-13 3.47796e-13 3.03422e-13 1.90752e-13 2.28209e-13 2.18338e-13 1.94225e-13 2.69396e-13 2.95334e-13 3.01756e-13 1.17447e-13 1.85587e-13 1.71432e-13 1.73638e-13 1.91368e-13 2.18729e-13 1.87209e-13 1.36071e-13 4.96701e-13 5.04373e-13 6.11655e-13 6.02727e-13 -1.55524e-13 -3.75332e-13 -2.92993e-13 -2.03601e-13 -2.05577e-13 -2.79248e-13 -4.61905e-13 -3.89724e-13 -3.28133e-13 -3.18739e-13 -3.54739e-13 -3.43223e-13 -3.45227e-13 -3.23972e-13 -2.70391e-13 -3.36864e-13 -4.6825e-13 -4.40688e-13 -3.7737e-13 -2.51081e-14 4.08131e-14 -3.802e-14 6.75508e-13 6.83815e-13 7.57918e-13 7.77307e-13 3.05572e-13 4.86293e-13 4.77805e-13 -2.77214e-13 -2.58803e-13 -1.15881e-13 9.93406e-14 5.41741e-14 2.25111e-13 -1.34121e-13 -2.41643e-13 -5.05812e-13 -5.02681e-13 6.75643e-13 4.44697e-13 4.24024e-13 1.84986e-13 -1.86772e-14 -2.09375e-14 3.78985e-13 2.95867e-13 3.74327e-13 3.99102e-13 3.99385e-13 1.2941e-13 1.51612e-13 1.12821e-13 3.30581e-14 3.87383e-13 3.81926e-13 1.73028e-13 2.73061e-13 3.15598e-13 2.51382e-13 4.15468e-13 1.62942e-13 -9.79719e-13 -9.77868e-13 -9.76036e-13 -9.74222e-13 -9.72428e-13 -9.70653e-13 -9.68896e-13 -9.67159e-13 -9.6544e-13 -9.63739e-13 -9.62058e-13 -9.60395e-13 -9.5875e-13 -9.57124e-13 -9.55516e-13 -9.53926e-13 -9.52354e-13 -9.50801e-13 -9.49266e-13 -9.47748e-13 -9.46249e-13 -9.44768e-13 -9.43304e-13 -9.41858e-13 -9.4043e-13 -9.3902e-13 -9.37627e-13 -9.36252e-13 -9.34894e-13 -9.33554e-13 -9.32231e-13 -9.30926e-13 -9.29638e-13 -9.28367e-13 -9.27113e-13 -9.25877e-13 -9.24657e-13 -9.23455e-13 -9.2227e-13 -9.21101e-13 -9.1995e-13 -9.18815e-13 -9.17697e-13 -9.16596e-13 -9.15512e-13 -9.14445e-13 -9.13394e-13 -9.12359e-13 -9.11342e-13 -9.1034e-13 -9.09356e-13 -9.08388e-13 -9.07436e-13 -9.065e-13 -9.05581e-13 -9.04678e-13 -9.03792e-13 -9.02922e-13 -9.02068e-13 -9.0123e-13 -9.00408e-13 -8.99602e-13 -8.98813e-13 -8.98039e-13 -8.97282e-13 -8.9654e-13 -8.95814e-13 -8.95105e-13 -8.94411e-13 -8.93733e-13 -8.93071e-13 -8.92425e-13 -8.91794e-13 -8.91179e-13 -8.9058e-13 -8.89997e-13 -8.8943e-13 -8.88878e-13 -8.88342e-13 -8.87821e-13 -8.87316e-13 -8.86827e-13 -8.86353e-13 -8.85895e-13 -8.85452e-13 -8.85025e-13 -8.84613e-13 -8.84217e-13 -8.83836e-13 -8.83471e-13 -8.83121e-13 -8.82786e-13 -8.82467e-13 -8.82164e-13 -8.81875e-13 -8.81602e-13 -8.81345e-13 -8.81103e-13 -8.80876e-13 -8.80664e-13 -8.80468e-13 -8.80287e-13 -8.80122e-13 -8.79972e-13 -8.79837e-13 -8.79717e-13 -8.79613e-13 -8.79524e-13 -8.7945e-13 -8.79392e-13 -8.79349e-13 -8.79321e-13 -8.79308e-13 -8.79311e-13 -8.79329e-13 -8.79362e-13 -8.7941e-13 -8.79474e-13 -8.79553e-13 -8.79647e-13 -9.11109e-13 -9.11235e-13 -9.11378e-13 -9.11537e-13 -9.11621e-13 -9.11713e-13 -9.11905e-13 -9.12114e-13 -9.12339e-13 -9.12581e-13 -9.1284e-13 -9.13115e-13 -9.13407e-13 -9.13557e-13 -9.57168e-13 -9.57495e-13 -9.5784e-13 -9.58203e-13 -9.58585e-13 -9.58985e-13 -9.59404e-13 -9.59841e-13 -9.60296e-13 -9.6077e-13 -9.61263e-13 -9.61774e-13 -9.62303e-13 -9.62851e-13 -9.63417e-13 -9.64002e-13 -9.64606e-13 -9.65228e-13 -9.65869e-13 -9.66529e-13 -9.67207e-13 -9.67904e-13 -9.6862e-13 -9.69354e-13 -9.70108e-13 -9.7088e-13 -9.71671e-13 -9.72481e-13 -9.77993e-13 -9.78841e-13 -9.79708e-13 -9.80398e-13 -5.07344e-13 -5.07463e-13 -5.07592e-13 -5.0773e-13 -5.09133e-13 -5.10553e-13 -5.12001e-13 -5.13473e-13 -5.14966e-13 -5.16476e-13 -5.17998e-13 -5.19527e-13 -5.21059e-13 -5.22587e-13 -5.24105e-13 -5.25607e-13 -5.27084e-13 -5.28529e-13 -5.29837e-13 -4.6379e-13 -4.63947e-13 -4.64113e-13 -4.64288e-13 -4.64472e-13 -4.64665e-13 -4.64868e-13 -4.64978e-13 -4.63769e-13 -4.63934e-13 -4.64107e-13 -4.6429e-13 -4.64482e-13 -4.64683e-13 -4.64885e-13 -4.63751e-13 -4.63924e-13 -4.64105e-13 -4.64295e-13 -4.64495e-13 -4.64703e-13 -4.64897e-13 -4.63737e-13 -4.63917e-13 -4.64106e-13 -4.64304e-13 -4.64511e-13 -4.64728e-13 -4.64912e-13 -4.63726e-13 -4.63914e-13 -4.64111e-13 -4.64317e-13 -4.64532e-13 -4.64756e-13 -4.64928e-13 -4.6372e-13 -4.63916e-13 -4.6412e-13 -4.64334e-13 -4.64557e-13 -4.64789e-13 -4.64946e-13 -4.63718e-13 -4.63921e-13 -4.64134e-13 -4.64356e-13 -4.64587e-13 -4.64826e-13 -4.64967e-13 -4.63721e-13 -4.63932e-13 -4.64153e-13 -4.64382e-13 -4.64621e-13 -4.64864e-13 -4.63729e-13 -4.63948e-13 -4.64177e-13 -4.64415e-13 -4.64661e-13 -4.64886e-13 -4.63743e-13 -4.6397e-13 -4.64207e-13 -4.64453e-13 -4.64708e-13 -4.64911e-13 -4.63763e-13 -4.63999e-13 -4.64244e-13 -4.64497e-13 -4.6476e-13 -4.64939e-13 -4.63791e-13 -4.64034e-13 -4.64287e-13 -4.64549e-13 -4.6482e-13 -4.64972e-13 -4.63826e-13 -4.64078e-13 -4.64339e-13 -4.64609e-13 -4.64866e-13 -4.63869e-13 -4.64129e-13 -4.64398e-13 -4.64677e-13 -4.64902e-13 -4.63921e-13 -4.6419e-13 -4.64467e-13 -4.64754e-13 -4.64942e-13 -3.49348e-13 -3.75806e-13 -3.75929e-13 -4.02847e-13 -4.02986e-13 -4.03132e-13 -4.169e-13 -4.24578e-13 -4.24808e-13 -4.25076e-13 -4.44943e-13 -4.45138e-13 -4.49944e-13 -4.50157e-13 -4.74702e-13 -4.80612e-13 -5.10241e-13 -5.29092e-13 -5.36377e-13 -5.36663e-13 -5.36944e-13 -5.37235e-13 -5.51851e-13 -5.65313e-13 -5.65636e-13 -5.66077e-13 -5.69387e-13 -5.71378e-13 -5.85529e-13 -5.95118e-13 -6.15303e-13 -6.34469e-13 -6.34884e-13 -6.35311e-13 -4.97114e-13 -4.97432e-13 -4.97759e-13 -4.98094e-13 -5.00892e-13 -5.03652e-13 -5.06404e-13 -5.09142e-13 -5.11863e-13 -5.14559e-13 -5.17225e-13 -5.19854e-13 -5.22438e-13 -5.24971e-13 -5.27443e-13 -5.29759e-13 -4.62671e-13 -4.63025e-13 -4.63388e-13 -4.6376e-13 -4.64142e-13 -4.64532e-13 -4.64857e-13 -4.62685e-13 -4.63046e-13 -4.63417e-13 -4.63796e-13 -4.64185e-13 -4.64583e-13 -4.64884e-13 -4.62703e-13 -4.63072e-13 -4.6345e-13 -4.63837e-13 -4.64233e-13 -4.64638e-13 -4.64914e-13 -4.62726e-13 -4.63103e-13 -4.63488e-13 -4.63883e-13 -4.64287e-13 -4.64699e-13 -4.64946e-13 -4.62755e-13 -4.63139e-13 -4.63532e-13 -4.63934e-13 -4.64346e-13 -4.64766e-13 -4.64982e-13 -4.62789e-13 -4.63181e-13 -4.63582e-13 -4.63992e-13 -4.64411e-13 -4.64804e-13 -4.62829e-13 -4.63229e-13 -4.63638e-13 -4.64056e-13 -4.64483e-13 -4.64842e-13 -4.62876e-13 -4.63284e-13 -4.63701e-13 -4.64127e-13 -4.64561e-13 -4.64883e-13 -4.62931e-13 -4.63347e-13 -4.63771e-13 -4.64205e-13 -4.64648e-13 -4.64928e-13 -4.62994e-13 -4.63417e-13 -4.6385e-13 -4.64292e-13 -4.64743e-13 -4.64978e-13 -4.63065e-13 -4.63497e-13 -4.63938e-13 -4.64388e-13 -4.648e-13 -4.63146e-13 -4.63586e-13 -4.64035e-13 -4.64494e-13 -4.64855e-13 -3.78628e-13 -3.81788e-13 -3.97055e-13 -3.97386e-13 -3.97724e-13 -3.98757e-13 -4.03614e-13 -4.39586e-13 -4.39956e-13 -4.40334e-13 -4.48913e-13 -4.57641e-13 -4.64448e-13 -4.7099e-13 -4.77902e-13 -4.78334e-13 -4.78775e-13 -4.95333e-13 -5.04184e-13 -5.14105e-13 -5.25129e-13 -5.25619e-13 -5.41143e-13 -5.41654e-13 -5.42176e-13 -5.50969e-13 -5.2821e-13 -5.29049e-13 -5.2966e-13 -3.8167e-13 -4.13969e-13 -4.20585e-13 -4.21062e-13 
</DataArray>
<DataArray type="Float32" Name="radial_flux" NumberOfComponents="1" format="ascii" >