# vtk DataFile Version 3.0
vtk output
ASCII
DATASET POLYDATA
POINTS 17911 double
3.465 36.3825 119.295 3.465 36.63 119.543 3.465 36.8775 120.038 
3.465 37.3725 120.533 3.465 37.62 121.028 3.465 37.8675 121.275 
3.465 39.3525 124.493 3.7125 36.8775 119.79 3.7125 37.125 120.285 
3.7125 37.62 120.78 3.7125 38.115 121.523 3.7125 38.3625 121.77 
3.7125 38.61 122.018 3.7125 38.8575 122.265 3.7125 38.8575 122.513 
3.7125 38.8575 122.76 3.7125 38.8575 123.008 3.7125 38.8575 123.255 
3.7125 38.8575 123.503 3.7125 38.8575 123.75 3.7125 38.8575 123.998 
3.7125 39.105 124.245 3.7125 39.6 124.74 3.7125 39.8475 124.988 
3.7125 39.8475 125.235 3.7125 40.095 125.483 3.96 40.3425 125.73 
3.96 40.59 125.73 3.96 40.8375 125.978 3.96 41.085 126.225 
4.2075 35.3925 31.9275 4.2075 35.8875 31.9275 4.2075 41.085 126.225 
4.455 33.66 115.83 4.455 34.4025 31.68 4.455 34.8975 31.68 
4.455 35.145 31.9275 4.455 35.64 32.175 4.455 36.135 32.175 
4.455 36.3825 31.9275 4.455 36.8775 31.9275 4.455 37.3725 32.175 
4.455 39.6 32.4225 4.455 40.095 32.4225 4.455 40.59 32.4225 
4.455 41.085 32.4225 4.455 41.085 125.978 4.7025 28.71 0.495 
4.7025 28.71 0.7425 4.7025 29.7 42.8175 4.7025 32.67 63.36 
4.7025 33.9075 116.078 4.7025 34.155 31.9275 4.7025 34.65 31.9275 
4.7025 36.63 32.175 4.7025 37.125 32.175 4.7025 37.62 32.4225 
4.7025 37.8675 32.175 4.7025 38.3625 32.175 4.7025 38.61 32.175 
4.7025 38.8575 32.175 4.7025 39.105 32.175 4.7025 39.3525 32.175 
4.7025 39.8475 32.67 4.7025 40.3425 32.67 4.7025 40.8375 32.67 
4.7025 41.085 125.978 4.95 28.215 2.2275 4.95 28.215 2.475 
4.95 28.215 2.7225 4.95 28.215 2.97 4.95 28.215 3.2175 
4.95 28.215 3.465 4.95 28.4625 0.99 4.95 28.4625 1.2375 
4.95 28.4625 1.485 4.95 28.4625 1.7325 4.95 28.4625 1.98 
4.95 29.4525 42.57 4.95 29.9475 43.065 4.95 30.195 43.065 
4.95 31.185 6.6825 4.95 32.4225 63.36 4.95 33.9075 31.68 
4.95 34.155 116.078 4.95 38.115 32.4225 4.95 41.3325 126.225 
5.1975 26.73 42.3225 5.1975 26.9775 42.3225 5.1975 27.225 7.92 
5.1975 27.225 8.91 5.1975 27.225 9.1575 5.1975 27.225 9.405 
5.1975 27.225 42.3225 5.1975 27.4725 6.435 5.1975 27.4725 6.6825 
5.1975 27.4725 6.93 5.1975 27.4725 7.1775 5.1975 27.4725 7.425 
5.1975 27.4725 7.6725 5.1975 27.4725 42.3225 5.1975 27.72 4.95 
5.1975 27.72 42.3225 5.1975 27.9675 3.7125 5.1975 27.9675 3.96 
5.1975 27.9675 4.2075 5.1975 27.9675 4.455 5.1975 27.9675 4.7025 
5.1975 27.9675 42.3225 5.1975 28.215 42.3225 5.1975 28.4625 42.3225 
5.1975 28.71 42.3225 5.1975 28.9575 42.3225 5.1975 29.205 42.3225 
5.1975 30.4425 43.3125 5.1975 30.69 43.065 5.1975 30.9375 6.6825 
5.1975 31.9275 63.36 5.1975 32.175 63.6075 5.1975 33.9075 31.9275 
5.1975 34.4025 116.078 5.1975 41.58 125.978 5.1975 49.2525 26.4825 
5.445 26.235 15.345 5.445 26.4825 17.82 5.445 26.4825 18.0675 
5.445 26.4825 18.315 5.445 26.4825 18.5625 5.445 26.4825 42.075 
5.445 26.4825 79.4475 5.445 26.73 19.8 5.445 26.73 20.0475 
5.445 26.73 20.295 5.445 26.73 22.77 5.445 26.73 23.0175 
5.445 26.73 23.265 5.445 26.73 23.5125 5.445 26.73 23.76 
5.445 26.73 24.0075 5.445 26.73 24.75 5.445 26.73 24.9975 
5.445 26.73 25.245 5.445 26.73 25.4925 5.445 26.73 25.74 
5.445 26.73 25.9875 5.445 26.73 26.235 5.445 26.73 26.4825 
5.445 26.73 26.73 5.445 26.73 26.9775 5.445 26.73 27.225 
5.445 26.73 27.4725 5.445 26.73 27.72 5.445 26.73 27.9675 
5.445 26.73 28.215 5.445 26.73 28.4625 5.445 26.73 28.71 
5.445 26.73 28.9575 5.445 26.73 31.68 5.445 26.73 31.9275 
5.445 26.73 32.175 5.445 26.73 32.4225 5.445 26.73 32.67 
5.445 26.9775 8.1675 5.445 26.9775 8.415 5.445 26.9775 8.6625 
5.445 26.9775 9.6525 5.445 26.9775 9.9 5.445 26.9775 10.1475 
5.445 26.9775 10.395 5.445 26.9775 10.6425 5.445 26.9775 29.205 
5.445 26.9775 29.4525 5.445 26.9775 29.7 5.445 26.9775 29.9475 
5.445 26.9775 30.195 5.445 26.9775 30.4425 5.445 26.9775 30.69 
5.445 27.225 6.1875 5.445 27.4725 5.94 5.445 27.72 5.1975 
5.445 27.72 5.445 5.445 27.72 5.6925 5.445 30.9375 6.6825 
5.445 30.9375 43.3125 5.445 31.185 43.065 5.445 31.68 63.36 
5.445 33.66 32.175 5.445 34.65 116.078 5.445 41.58 125.978 
5.445 49.5 26.73 5.6925 25.9875 15.5925 5.6925 25.9875 48.7575 
5.6925 25.9875 49.005 5.6925 25.9875 49.2525 5.6925 25.9875 49.5 
5.6925 25.9875 49.7475 5.6925 25.9875 49.995 5.6925 25.9875 50.2425 
5.6925 25.9875 51.975 5.6925 25.9875 52.2225 5.6925 25.9875 52.47 
5.6925 25.9875 52.7175 5.6925 25.9875 52.965 5.6925 25.9875 53.2125 
5.6925 26.235 12.87 5.6925 26.235 13.365 5.6925 26.235 13.6125 
5.6925 26.235 13.86 5.6925 26.235 14.1075 5.6925 26.235 14.355 
5.6925 26.235 14.6025 5.6925 26.235 14.85 5.6925 26.235 15.0975 
5.6925 26.235 15.84 5.6925 26.235 16.0875 5.6925 26.235 16.335 
5.6925 26.235 16.5825 5.6925 26.235 16.83 5.6925 26.235 17.0775 
5.6925 26.235 17.325 5.6925 26.235 17.5725 5.6925 26.235 35.8875 
5.6925 26.235 36.135 5.6925 26.235 36.3825 5.6925 26.235 36.63 
5.6925 26.235 36.8775 5.6925 26.235 37.125 5.6925 26.235 37.3725 
5.6925 26.235 37.62 5.6925 26.235 37.8675 5.6925 26.235 38.115 
5.6925 26.235 38.3625 5.6925 26.235 38.61 5.6925 26.235 39.3525 
5.6925 26.235 39.6 5.6925 26.235 39.8475 5.6925 26.235 40.095 
5.6925 26.235 40.3425 5.6925 26.235 40.59 5.6925 26.235 40.8375 
5.6925 26.235 41.085 5.6925 26.235 41.58 5.6925 26.235 43.065 
5.6925 26.235 43.3125 5.6925 26.235 43.56 5.6925 26.235 43.8075 
5.6925 26.235 44.055 5.6925 26.235 44.3025 5.6925 26.235 44.55 
5.6925 26.235 44.7975 5.6925 26.235 45.045 5.6925 26.235 45.2925 
5.6925 26.235 45.54 5.6925 26.235 45.7875 5.6925 26.235 46.035 
5.6925 26.235 46.2825 5.6925 26.235 46.53 5.6925 26.235 46.7775 
5.6925 26.235 47.2725 5.6925 26.235 47.52 5.6925 26.235 47.7675 
5.6925 26.235 48.015 5.6925 26.235 48.2625 5.6925 26.235 48.51 
5.6925 26.4825 7.92 5.6925 26.4825 11.6325 5.6925 26.4825 11.88 
5.6925 26.4825 12.1275 5.6925 26.4825 12.375 5.6925 26.4825 12.6225 
5.6925 26.4825 13.1175 5.6925 26.4825 18.81 5.6925 26.4825 19.0575 
5.6925 26.4825 19.305 5.6925 26.4825 19.5525 5.6925 26.4825 20.5425 
5.6925 26.4825 20.79 5.6925 26.4825 21.78 5.6925 26.4825 22.0275 
5.6925 26.4825 22.275 5.6925 26.4825 22.5225 5.6925 26.4825 32.9175 
5.6925 26.4825 33.165 5.6925 26.4825 33.4125 5.6925 26.4825 33.66 
5.6925 26.4825 33.9075 5.6925 26.4825 34.155 5.6925 26.4825 34.4025 
5.6925 26.4825 34.65 5.6925 26.4825 34.8975 5.6925 26.4825 35.145 
5.6925 26.4825 41.3325 5.6925 26.4825 41.8275 5.6925 26.4825 42.3225 
5.6925 26.4825 42.57 5.6925 26.4825 42.8175 5.6925 26.73 7.92 
5.6925 26.73 10.89 5.6925 26.73 11.1375 5.6925 26.73 11.385 
5.6925 26.73 21.0375 5.6925 26.73 21.285 5.6925 26.73 21.5325 
5.6925 26.73 24.255 5.6925 26.73 24.5025 5.6925 26.73 30.9375 
5.6925 26.73 31.185 5.6925 26.73 31.4325 5.6925 26.73 79.695 
5.6925 26.9775 5.445 5.6925 26.9775 7.92 5.6925 26.9775 21.0375 
5.6925 27.225 5.6925 5.6925 29.7 63.855 5.6925 29.9475 6.6825 
5.6925 29.9475 63.855 5.6925 30.195 6.6825 5.6925 30.195 63.855 
5.6925 30.4425 6.6825 5.6925 30.4425 63.855 5.6925 30.69 6.6825 
5.6925 31.4325 43.3125 5.6925 31.4325 63.6075 5.6925 32.67 132.66 
5.6925 32.9175 132.66 5.6925 33.165 132.66 5.6925 33.4125 32.4225 
5.6925 33.4125 132.66 5.6925 33.66 132.66 5.6925 33.9075 132.66 
5.6925 34.155 132.66 5.6925 34.4025 132.66 5.6925 34.65 132.66 
5.6925 34.8975 116.325 5.6925 34.8975 132.66 5.6925 35.145 116.078 
5.6925 35.145 132.66 5.6925 41.8275 126.225 5.6925 49.5 26.9775 
5.94 24.9975 64.35 5.94 25.245 60.6375 5.94 25.245 61.38 
5.94 25.245 61.6275 5.94 25.245 61.875 5.94 25.245 64.35 
5.94 25.4925 56.1825 5.94 25.4925 56.43 5.94 25.4925 57.6675 
5.94 25.4925 57.915 5.94 25.4925 58.1625 5.94 25.4925 59.1525 
5.94 25.4925 59.4 5.94 25.4925 59.6475 5.94 25.4925 64.35 
5.94 25.74 53.46 5.94 25.74 53.7075 5.94 25.74 53.955 
5.94 25.74 54.2025 5.94 25.74 54.45 5.94 25.74 54.6975 
5.94 25.74 54.945 5.94 25.74 55.1925 5.94 25.74 55.44 
5.94 25.74 55.6875 5.94 25.74 55.935 5.94 25.74 58.905 
5.94 25.74 64.35 5.94 25.9875 39.105 5.94 25.9875 50.49 
5.94 25.9875 50.7375 5.94 25.9875 50.985 5.94 25.9875 51.2325 
5.94 25.9875 51.48 5.94 25.9875 51.7275 5.94 25.9875 64.5975 
5.94 26.235 7.92 5.94 26.235 38.8575 5.94 26.235 47.025 
5.94 26.235 64.5975 5.94 26.4825 35.3925 5.94 26.4825 35.64 
5.94 26.4825 79.9425 5.94 26.73 5.1975 5.94 26.73 33.4125 
5.94 26.73 64.35 5.94 26.9775 7.92 5.94 27.225 20.79 
5.94 27.225 64.35 5.94 27.4725 20.79 5.94 27.72 64.1025 
5.94 27.9675 63.855 5.94 28.215 63.855 5.94 28.4625 7.425 
5.94 28.4625 63.855 5.94 28.71 63.855 5.94 29.205 63.855 
5.94 29.4525 63.855 5.94 29.7 6.93 5.94 30.69 63.6075 
5.94 31.185 63.36 5.94 31.4325 132.413 5.94 31.68 43.56 
5.94 31.9275 43.56 5.94 31.9275 132.66 5.94 32.4225 43.8075 
5.94 32.4225 132.66 5.94 33.165 32.67 5.94 35.3925 116.325 
5.94 35.3925 132.66 5.94 42.075 125.978 5.94 49.7475 26.9775 
6.1875 24.75 63.1125 6.1875 24.75 63.36 6.1875 24.75 63.6075 
6.1875 24.75 63.855 6.1875 24.75 64.1025 6.1875 24.75 64.35 
6.1875 24.75 64.5975 6.1875 24.9975 60.885 6.1875 24.9975 62.1225 
6.1875 24.9975 62.37 6.1875 24.9975 62.6175 6.1875 24.9975 62.865 
6.1875 25.245 59.895 6.1875 25.245 60.1425 6.1875 25.245 60.39 
6.1875 25.245 61.1325 6.1875 25.4925 56.6775 6.1875 25.4925 56.925 
6.1875 25.4925 57.1725 6.1875 25.4925 57.42 6.1875 25.4925 58.41 
6.1875 25.4925 58.6575 6.1875 25.9875 7.6725 6.1875 25.9875 59.1525 
6.1875 26.235 59.1525 6.1875 26.235 80.4375 6.1875 26.4825 59.4 
6.1875 26.4825 64.5975 6.1875 26.4825 80.19 6.1875 26.73 5.1975 
6.1875 26.73 33.4125 6.1875 26.73 59.6475 6.1875 26.9775 7.92 
6.1875 26.9775 64.5975 6.1875 27.4725 64.35 6.1875 27.72 20.5425 
6.1875 27.9675 7.6725 6.1875 27.9675 20.295 6.1875 28.215 7.425 
6.1875 28.71 7.1775 6.1875 28.9575 64.1025 6.1875 29.205 6.93 
6.1875 29.4525 6.93 6.1875 30.9375 63.6075 6.1875 31.68 132.66 
6.1875 32.175 43.8075 6.1875 32.175 132.908 6.1875 32.67 44.055 
6.1875 32.9175 32.67 6.1875 32.9175 44.055 6.1875 33.4125 44.55 
[...]
CELL_DATA 17910
SCALARS angle%0A[rad] double
LOOKUP_TABLE default
0 0.270947 0.432953 0.232235 0.132455 0.0863126 0.0896138 0.0804493 0.0381696 
0.0415453 0.0783539 0.120258 0.164772 0.0415453 0.0381696 0.0804493 0.139421 0.214633 
0.132455 0.191171 0.297651 0.636132 0.108043 0.181058 0.101485 0.186137 0.249518 
0.338398 0.46892 0.669253 0.768288 1.59978 1.40287 1.2621 1.12964 0.997596 
0.614726 0.357136 0.193228 0.0762125 0.15217 0.39221 0.38202 0.513909 0.477666 
0.448731 0.390489 0.351551 0.473767 0.482755 0.406082 0.434227 0.367733 0.364418 
0.23612 0.181294 1.14951 1.01998 0.975674 0.968385 0.820528 0.836438 0.871901 
0.721509 0.655633 0.53474 0.367612 0.367227 0.318255 0.198589 0.106081 0 
0.125604 0.0666909 0.045764 0.090406 0.168566 0.177702 0.153265 0.100543 0.0255166 
0.223183 0.146936 0.194163 0.0255166 0.158381 0.135869 0.0945543 0.0945543 0.218355 
0.115506 0.252011 0.135869 0.122529 0.0264277 0.157265 0.202122 0.122529 0.0487235 
0.0629575 0.0558662 0.0558662 0.176639 0.183616 0.198049 0 0.234984 0.0918954 
0.174851 0.242111 0.0834184 0.0616069 0.0600938 0.0918954 0.0637165 0.0918954 0.0600938 
0.0899238 0.230664 0.122771 0.0989791 0.0989791 0.0429471 0.106427 0.179848 0.0503781 
0.106571 0.0989791 0.184482 0.120765 0.141926 0.122771 0.141926 0.0503781 0.0989791 
0.0989791 0.0989791 0.141926 0.0503781 0.0572703 0.0989791 0.122771 0.171851 0.241445 
0.174851 0.0626774 0.1457 0.183341 0.0637165 0.122529 0.120272 0.194458 0.253468 
0.327385 0.16104 0.322476 0.0709776 0.299736 0.199822 0.339114 0.2234 0.297346 
0.29606 0.233086 0.145464 0.105901 0.103578 0.10365 0.261612 0.0733483 0.209479 
0.16792 0.371791 0.0856296 0.324569 0.134135 0.105285 0.107263 0.0739468 0.211802 
0 0.150901 0.0750186 0.0148854 0.0654851 0.0739468 0.217001 0.0685436 0.16496 
0.267022 0.0586129 0.213309 0.0739468 0.148367 0.275847 0.10365 0.0148854 0.0844242 
0.20004 0.10365 0.0148854 0.0733483 0.164324 0.152244 0.291285 0.219345 0.0723824 
0.254167 0.104877 0.091696 0.0542384 0.186045 0.133185 0.0963385 0.125183 0.167203 
0.0398159 0.223488 0.338994 0.315459 1.13367 0.27055 0.388203 0.214233 0.354274 
0.170338 0.393409 0.170338 0.463856 0.0831412 0.502523 0 0.955317 0.152649 
0.117512 0.117512 0.10286 0.241311 0.10286 0.215458 0.16994 0.27265 0.16994 
0.27265 0.16994 0.238336 0.234602 0.227335 0.150901 0.213309 0.213309 0.213309 
0.16994 0.107263 0.235995 0.107263 0.213309 0.16792 0.105901 0.235995 0.233931 
0.105901 0.139668 0.133575 0.139668 0.133575 0.0750186 0.0844242 0.138855 0.219345 
0.146367 0.164324 0.235995 0.233931 0.105901 0.0658524 0.102985 0.0398193 0.127101 
0.142072 0.0752031 0.104104 0.200546 0.0839814 0.422025 0.0909093 0.584862 0.401247 
0.73784 0.148367 0.221124 0.238313 0.13844 0.0847824 0.011957 0.0654851 0.147315 
0.147315 0.147315 0.156884 0.0810156 0.011957 0.0758826 0.105873 0.297719 0.214801 
0.110362 0.10415 0.110362 0.0654851 0.214175 0.147315 0.139668 0.0998057 0.171659 
0.166128 0.209479 0.164324 0.165057 0.16801 0.148367 0.27068 0.112371 0.40839 
0.122019 0.313733 0.153511 0.51471 0.38739 0.753189 0.399498 0.985101 0.647107 
1.01909 0.325811 0.225169 0.263983 0.261796 0.129727 0.25675 0.276497 0.276497 
0.317997 0.319405 0.177702 0.190286 0.141292 0.151625 0.0848813 0.127558 0.151625 
0.131394 0.131394 0.0825945 0.0888985 0.0806762 0.127684 0.0583722 0.0579021 0.106275 
0.106275 0.0592271 0.0852144 0.0852144 0.0592271 0.0592271 0.0592271 0.0592271 0.0852144 
0.113559 0.106275 0.0792216 0.0670123 0.146936 0.0611003 0 0.15168 0.0677531 
0.0938546 0.0864883 0.139458 0.0940511 0.23989 0.0573734 0.0658192 0.0670123 0.221533 
0.0552337 0.200985 0.0666665 0.168182 0.0611609 0.0792216 0.107117 0.0309693 0.0878385 
0.145515 0.137983 0.0883615 0.189366 0.233256 0.238057 0.238847 0.0632857 0.0869001 
0.151845 0.13085 0.0968495 0.0848813 0.138898 0.13056 0.229725 0.144401 0.229725 
0.037718 0.0912861 0.208632 0.153743 0.211161 0.168565 0.211161 0.206813 0.189656 
0.211832 0.263176 0.210861 0.138131 0.138855 0.293107 0.134161 0.393005 0.0857343 
0.289116 0.0857343 0.36601 0 0.315864 0.106046 0.267314 0.0748133 0.106046 
0.237516 0.106046 0.315864 0.106046 0.237516 0.168296 0.271874 0.106046 0.315864 
0.106046 0.237516 0.106046 0.102556 0.149627 0.208602 0.208602 0.208602 0.16792 
0.267491 0.149627 0.208602 0.208602 0.208602 0.16792 0.16792 0.267491 0.161852 
0.227335 0.10286 0.227335 0.10286 0.227335 0.238618 0.307126 0.10286 0.227335 
0.10286 0.161852 0 0 0 0 0.161852 0.0768107 0.238618 
0.10836 0 0 0 0 0.161852 0.0768107 0.161852 0.0695081 
0.270487 0.0739468 0.367129 0.158951 0.428143 0.363344 0.506987 0.443158 0.623726 
0.346605 0.76217 0.499823 0.713234 0.492996 0.794977 0.593431 1.29278 0.956288 
0.956288 0.839462 0.839462 0.631718 0.631718 0.403166 0.403166 0.182581 0.182581 
0.0709776 0.0709776 0.235995 0.0981433 0.0739851 0.143699 0.208615 0.286109 0.146367 
0.278884 0.263961 0.154023 0 0.140025 0.163285 0.154023 0.142487 0.216472 
0.086099 0.102985 0.310732 0.0839814 0.330867 0.202282 0.25457 0.137813 0.325053 
0.0625226 0.41043 0.242217 0.367174 0.324853 1.01018 0.294533 0.205907 0.170256 
0.192843 0.26134 0.117678 0.306774 0.314641 0.491345 0.468709 0.468406 0.28507 
0.338116 0.169638 0.397845 0.388173 0.263395 0.261157 0.150244 0.138901 0.175873 
0.137848 0.131394 0.155335 0.0134268 0.217464 0.0592271 0.191255 0.19321 0.201891 
0.140929 0.167991 0.174663 0.253645 0.13042 0.260956 0.186521 0.3151 0.146417 
0.283239 0.146417 0.44799 0.264564 0.519359 0.385987 0.631185 0.50003 0.605999 
0.444298 0.691432 0.604741 0.457091 0.613693 0.595694 0.523868 0.465899 0.399466 
0.34468 0.48589 0.144797 0.137377 0.361804 0.424772 0.795381 0.968002 1.13262 
1.1056 1.38691 1.2728 1.42302 0.470065 0.651064 0.634755 0.697569 0.587185 
0.627456 0.637079 0.379788 0.679776 0.552257 0.553447 0.525845 0.433954 0.408336 
0.529655 0.567088 0.429402 0.484072 0.457828 0.674696 0.856965 1.07092 1.22166 
1.35244 1.35777 1.34437 1.34277 1.39222 1.39688 1.49809 1.51909 1.42284 
1.38327 1.2146 1.09744 0.995555 0.739165 0.670056 0.648973 0.444996 0.429204 
0.233651 0.249796 0.311161 0.101485 0.605138 2.03135 1.61518 1.62164 1.44976 
1.30171 1.18886 0.887155 1.2044 1.50423 0.889319 1.23455 1.3791 1.39944 
1.6504 1.49671 1.37635 1.06904 0.895089 0.9023 0.590873 0.0624963 0.507099 
0.291117 0.358039 0.593431 0.477353 0.274167 0.161672 0.189352 0.0910275 0.13411 
0.135344 0.0475831 0.0374824 0.192789 0.173787 0.348109 0.129678 0.710336 0.324508 
0.15863 0.252501 0.228597 0.472489 0.371967 0.248486 0.173272 0.163568 0.171564 
0.13191 0.022811 0.0277089 0.300667 0.18097 0.07983 0.363298 0.855539 0.785398 
0.200484 0.209449 0.787787 1.11479 0.712256 1.5708 1.22269 1.15467 0.950747 
0.769651 0.839252 0.693546 0.809033 0.550628 0.367208 0.424312 0.237027 0.192214 
0.217052 0.218168 0.175894 0.249449 0.124275 0.209535 0.125604 0.133241 0.415839 
0.160511 0.0255166 0.197314 0.133241 0.205552 0.266502 0.108758 0.0801748 0.252707 
0.230176 0.280393 0.108758 0.356476 0.163898 0.097221 0.234988 0.12028 0.168566 
0.287778 0.151823 0.319769 0.172818 0.259393 0.132326 0.299218 0.333352 0.199347 
0.293285 0.330399 0.309694 0.23795 0.288325 0.23795 0.295388 0.132391 0.0769784 
0.119827 0 0.111537 0.162292 0.144891 0.22824 0.126097 0.175374 0.15182 
0.259983 0.232633 0.493448 0.172952 0.339247 0.550978 1.00011 0.146052 0.295417 
0.278815 0.299218 0.252098 0.293184 0.497379 0.355378 0.737815 0.694141 0.831304 
0.820366 0.937973 0.985356 1.08562 1.11684 1.24385 1.3423 1.31343 1.20749 
1.12141 1.11314 1.04331 0.859635 0.897998 0.784529 0.70321 0.585388 0.463648 
0.405613 0.260085 0.152265 0.0784826 0.115138 0.182276 0.173723 0.21177 0.177309 
0.188234 0.120763 0.263305 0.211093 0.266252 0.136259 0.446507 0.251416 0.12026 
0.0658843 0.12026 0.116625 0.148147 0.194865 0.0555663 0.0555663 0.0728185 0.119604 
0.122508 0.116743 0.115733 0.131847 0.209045 0.209045 0.16566 0.15457 0.0779871 
0.173907 0.154407 0.31885 0.31885 0.31885 0.246517 0.22723 0.22723 0.22723 
0.22723 0.267259 0.334639 0.16324 0.110997 0.110997 0.166156 0.172607 0.179853 
0.132552 0.141897 0.133661 0.141 0.149877 0.160762 0.0551587 0.0688565 0.0863985 
0.10965 0.225943 0.341546 0.404262 0.408149 0.7299 0.122469 0.122469 0.122469 
0.0528718 0.0525913 0.120118 0.120118 0.0587558 0.0554985 0.0784064 0.0784064 0.0784064 
0.0784064 0.116626 0.116626 0.0499584 0.0556892 0.0556892 0.052576 0.0725156 0.102541 
0.102541 0.115163 0.0742953 0.0742953 0.0742953 0.0705932 0 0 0.0742953 
0.0784064 0.0784064 0.0784064 0.199002 0.207025 0.193947 0.204281 0.216169 0.229986 
0.246232 0.111451 0.12137 0.133967 0.199347 0.231477 0.275643 0.339837 0.440511 
0.0784064 0.0784064 1.46018 1.34089 1.26629 1.25941 1.17557 1.03522 0.938523 
0.931321 0.881341 0.809749 0.724212 0.762629 0.582084 0.670386 0.582487 0.804634 
0.804086 0.869994 0.993309 0.976073 1.52187 2.10197 1.97934 1.71171 1.38038 
1.1873 1.05473 0.703001 0.409746 0.274732 0.273195 0.0265889 0.0526386 0.106663 
0.181307 0.285158 0.264408 0.160375 0.248832 0.107555 0.250216 0.17853 0.294542 
0.294542 0.137667 0.0829433 0.145369 0.210595 0.404508 0.468709 0.798618 0.694617 
1.02019 0.762675 1.02631 0.875266 0.944682 0.712639 0.776399 0.51173 0.588716 
0.187536 0.378001 0.0812613 0.0556892 0.052576 0.0548993 0.0522225 0 0.0739384 
0.0719078 0.0719078 0.167157 0.107963 0.110657 0.104877 0.117149 0.165849 0.117149 
0.117149 0.168617 0.187365 0.123473 0.128426 0.134053 0.140498 0.241953 0.344576 
0.171628 0.18394 0.174328 0.191569 0.212569 0.231477 0.275643 0.339837 0.325872 
0.61548 0.786937 0.191876 0.108714 0.111339 0.111339 0.0587558 0.0829979 0.0784064 
0.0499584 0.0525831 0.0525831 0.0525831 0.0525831 0.0525831 0.0525831 0.0525831 0.0742953 
0.0525105 0.0742953 0.0525105 0.052576 0.0995796 1.49012e-008 1.49012e-008 0.00262467 0.0525831 
0.0525831 0.0525831 0.0525105 0.0525105 0.0525105 0.0525105 0.0525105 0.0525105 0.0525105 
0.052576 0.052576 0.052576 0.070515 0.0740911 0.0522939 0.116637 0.116637 0.116637 
0.116637 0.0739384 0.0739384 0.0525105 0 0 0.0742953 0.0742953 0.0742953 
0.0742953 0.0705932 0.0499584 0.0499584 0.0499584 0.195537 0.204546 0.30364 0.322748 
0.347127 0.379257 0.306626 0.353583 0.374334 0.689775 1.02961 0.237941 0.132419 
0.132419 0.132419 0.0587094 0.0583543 0.0568334 0.0989547 0.0458013 0.0902305 0.177088 
0.147349 0.166478 0.0634327 0 0.0175421 0.0480399 0.237941 0.183914 0.183914 
0.183914 0.173907 1.80535 1.69905 1.64124 1.63678 1.49245 1.55262 1.48577 
1.3858 1.21572 1.14103 0.909016 0.734139 0.430062 0.215268 0.18086 0.130548 
0.196645 0.458488 0.33996 0.363803 0.25435 0.278827 0.243786 0.288885 0.558112 
0.709872 0.729835 0.543059 0.526123 0.410617 0.635899 0.538785 1.51257 1.3252 
1.2184 1.27084 1.14842 1.02055 0.927876 0.674612 0.518708 0.521643 0.458335 
0.367654 0.272553 0.265417 0.321086 0.253131 0.278426 0.287483 0.254893 0.173863 
0.139591 0.20308 0.134543 0.202445 0.31365 0.315459 0.264561 0.251494 0.133872 
0.311378 0.173787 0.276041 0.297114 0.371388 0.384261 0.218592 0.25337 0.372212 
0.336522 0.375279 0.21165 0.303629 0.218512 0.231444 0.078069 0.0939339 0.078069 
0.0950286 0.294011 0.454311 0.321725 0.468034 0.549966 0.524587 0.555659 0.62527 
0.630171 0.562902 0.435033 0.462961 0.554811 0.448563 0.425833 0.311675 0.392494 
0.329141 0.270504 0.390973 0.244679 0.0665898 0.285814 0.350955 0.368411 0.284133 
0.395192 0.514408 0.348755 0.35007 0.37289 0.235161 0.0849018 0.219089 0.247412 
0.247412 0.192675 0.217052 0.203197 0.184432 0.270517 0.33001 0.204457 0.263926 
0.177572 0.3861 0.260073 0.358908 0.429106 0.573965 0.665322 0.697912 0.788614 
0.943872 0.982525 1.05707 1.17015 1.21883 2.25637 2.2199 2.21697 2.22257 
2.07004 2.12042 1.97967 1.72034 1.37882 1.30933 1.18057 1.28768 1.07255 
1.03499 0.877772 0.657485 0.663687 0.716289 0.893755 0.874191 0.490363 1.7863 
1.66786 1.6021 1.6093 1.62635 1.6173 1.50264 1.3955 1.37763 1.24504 
1.13541 1.20692 1.23136 1.28515 1.26036 1.14357 0.964466 0.784731 0.643187 
0.482412 0.303475 0.249006 0.242216 0.219288 0.309335 0.171337 0.10113 0.172984 
0.184042 0.207776 0.225151 0.110193 0.170107 0.158016 0.151836 0.221303 0.118606 
0.143223 0.0560082 0.0560082 0.18135 0.220253 0.294458 0.183128 0.198606 0.2625 
0.174298 0.244058 0.12087 0.0654042 0.0139605 0.115065 0.127118 0.103996 0.108509 
0.223569 0.218161 0.338261 0.218161 0.33675 0.208596 0.317535 0.0670123 0.146637 
0.23681 0.278986 0.432383 0.432383 0.340512 0.499906 0.579543 0.507784 0.551927 
0.508857 0.464419 0.453021 0.354611 0.344722 0.100543 0.0672804 0.224799 0.247167 
0.391488 0.5384 0.644415 0.616871 0.737738 0.709483 0.873916 0.873916 0.98928 
0.98928 0.784367 0.784367 0.716737 0.625892 0.511498 0.415226 0.308789 0.302885 
0.169448 0.221756 0.204556 0.237543 0.374224 0.414352 0.255087 0.289476 0.378605 
0.323238 0.317374 0.308789 0.533474 0.160884 0.269624 0.0765466 0.386747 0.167412 
0.252418 0.25457 0.230906 0.290674 0.0713075 0.484367 0.100674 0.646367 0.100674 
1.10632 1.27845 1.23268 1.22172 1.1383 1.02866 0.956784 0.79119 0.733912 
0.630134 0.547917 0.435672 0.407133 0.531371 0.297903 0.420534 0.670661 0.117149 
0.559406 0.918628 1.7697 1.62008 0.528452 0.496081 0.332756 0.366863 0.49889 
0.299334 0.23071 0.322063 0.105623 0.338052 0.518203 0.917706 0.320352 0.24066 
0.250418 0.0738845 0.0960375 0.242017 0.303937 0.511913 0.941782 1.1294 0.629015 
0.865354 0.356733 0.490883 0.523898 0.418587 0.39799 0.212412 0.0534014 0.170379 
0.158552 0.465879 0.150987 0.442374 0.0797803 0.119756 0.080966 0.0521439 0.00993775 
0.0598997 0.123912 0.106095 0.130775 0.252345 0.209415 0.397223 0.226096 0.247137 
0.567534 0.176623 0.522849 0.652132 0.889319 0.638252 0.735252 0.752816 0.759263 
0.761589 0.753424 0.715386 0.782781 0.803559 0.705352 0.73143 0.719991 0.824891 
0.735562 0.860269 0.594335 0.573529 0.495178 0.631556 0.465139 0.442097 0.333923 
0.379305 0.219089 0.219089 0.227191 0.150027 0.213309 0.163114 0.150519 0.0813419 
0.269342 0.215777 0 0.215777 0.150901 0.301348 0.222149 0.2109 0.164711 
0.226799 0.211093 0.16965 0.252062 0.187824 0.225228 0.273868 0.170338 0.273868 
0.152649 0.273868 0.0831412 0.261219 0.214233 0 0.165149 0 0.231477 
0.0820151 0.16603 0.0831412 0.322592 0.10836 0.322592 0.113105 0.170338 0 
0.214233 0 0.214233 0.484492 0.342767 0.342767 0.322592 0.105873 0.51879 
0.260334 0.488967 0.16792 0.367174 0.144326 0.457668 0.0733483 0.0709776 0 
0 0.0733483 0.0733483 0.320151 0.201793 0.357859 0.0739851 0.260334 0.219345 
0.400399 0 0.16563 0.0723824 0.0733483 0.0184879 0.0184879 0.233086 0.0750186 
0.290469 0.0542384 0.240694 0.147453 0.290469 0.0844242 0.256139 0.223095 0.176723 
0.252062 0.371204 0.315459 0.0597755 0.245853 0.0597755 0.214537 0.247412 0.247412 
0.154982 0.213692 0.401526 0.3203 0.168296 0.332962 0.150519 0.235161 0.0960085 
0.235161 0 0.113101 0.172422 0.172422 0.0766392 0.0766392 0.240309 0.106046 
0.313728 0.184793 0.234682 0.234682 0.416576 0.163416 0.107291 0.177688 0.177688 
0.254278 0.162724 0.340504 0.162724 0.0634398 0.0839814 0.0839814 0.182581 0.141684 
0.0625226 0.199036 0.177688 0.157896 0.212633 0.170424 0.328177 0.0701042 0.146367 
0.137385 0.103051 0.0709776 0.299736 0.0709776 0.0945543 0.100714 0.0710919 0.222003 
0.184226 0.2234 0.0710919 0.0739851 0.151905 0.100714 0.0709776 0.165057 0.0709776 
0.230992 0.103051 0.100714 0.154582 0.272867 0.139022 0.16254 0.103739 0.10365 
0.146367 0.0739851 0.151905 0.0739851 0.29606 0.163898 0.158951 0.15512 0.2538 
0.0739851 0.228445 0.0726073 0.285116 0.232331 0.100714 0.0945543 0.15512 0 
0 0.143699 0.0715174 0.154487 0.242342 0.160486 0.145049 0.148326 0.245631 
0.100908 0.100908 0.0906191 0.097221 0.18784 0.0685158 0.18784 0 0.18784 
0.0685158 0.18784 0.097221 0.14952 0.0685158 0.0685158 0.347807 0.133616 0.209891 
0.0602703 0.212872 0.209154 0.180585 0.225177 0.180585 0.223941 0.120118 0.505934 
0.49196 0.989329 0.486899 0.219089 0.103578 0.15512 0.102556 0.097221 0.0733894 
0.097221 0.0908035 0.0538558 0.281376 0.136303 0.234005 0.15512 0.148798 0.15512 
0.0748133 0.0726073 0.145464 0.163898 0.0715174 0.0715174 0.163156 0.0748133 0.15512 
0.0733894 0.2234 0.102556 0.097221 0.102556 0.0726073 0.164284 0.232331 0.0748133 
0.15512 0.285441 0.0769865 0.0769865 0.164324 0.106046 0.103739 0.163156 0.0726073 
0.163156 0.145997 0.14585 0.148798 0.285441 0.155432 0.0181798 0.226006 0.237516 
0.102556 0.165057 0.0741495 0.16254 0.0741495 0.16254 0.0741495 0.148798 0.0741495 
0.16254 0.0741495 0.226006 0.0748133 0.102556 0.234363 0.0616502 0.163204 0.0294033 
0.159785 0.0181798 0.164007 0.0616502 0.299551 0.0923293 0.354985 0.226799 1.12326 
1.27929 1.22528 0.925378 0.853863 0.574391 0.619893 0.650592 0.359708 0.317719 
0.278769 0.312861 0.0735879 0.138151 0.238218 0.327687 0.265823 0.232679 0.296942 
0.282553 0.373018 0.320659 0.399256 0.399256 0.431502 0.297466 0.322515 0.448553 
0.542011 0.522752 0.554578 0.508675 0.418254 0.265262 0.0839343 0.306766 0.228405 
0.155624 0.130466 0.163513 0.047209 0.12464 0.162073 0.173831 0.180425 0.116466 
0.196225 0.100278 0.192839 0.0665773 0.158015 0.161734 0.167302 0.202203 0.202203 
0.165901 0.202782 0.129876 0.105085 0.309794 0.20879 0.107461 0.178299 0.074617 
0.0172448 0.101465 0.0532715 0.167942 0.0833827 0.0910343 0.0877222 0.130114 0.152145 
0.221356 0.206586 0.0978438 0.140793 0.188777 0.243285 0.187835 0.0524829 0.235093 
0.235093 0.158177 0.126891 0.177358 0.233954 0.233954 0.206586 0.15174 0.153675 
0.209881 0.160676 0.161758 0.113847 0.161212 0.220652 0.162244 0.182882 0.192171 
0.25442 0.25442 0.254172 0.193222 0.29103 0.233687 0.248677 0.287381 0.200546 
0.252062 0.30082 0.285711 0.358039 0.381762 0.564194 0.614004 0.52707 0.578253 
0.209346 0.190126 0.232735 0.471538 0.406446 0.683391 0.509859 0.165658 0.165658 
0.183886 0.174325 0.12026 0.0658843 0.0745633 0.104816 0.0519955 0.133546 0.0884875 
0.16487 0.18347 0.10329 0.10329 0.137176 0.137176 0.0153143 0.0153143 0.0416274 
0.0416274 0.0649704 0.123508 0.13947 0.0649704 0.0849179 0.0789113 0.0740905 0.112214 
0.0569926 0.0825406 0.0843564 0.057524 0.0366404 0.0841805 0.129678 0.120679 0.200144 
0.282265 0.349476 0.184945 0.211782 0.0164429 0.303734 0.317077 0.413103 0.646683 
0.124846 0.11561 0.0632831 0.0747389 0.194413 0.188659 0.188659 0.14973 0.148798 
0.116623 0.116623 0.0628642 0 0.0710801 0.132322 0.200117 0.0525816 0.0171482 
0.0893138 0.10985 0.201626 0.150621 0.182539 0.195128 0.211231 0.11439 0.127847 
0.148284 0.177292 0.205703 0.111452 0.11915 0.227281 0.142545 0.181913 0.137272 
0.487898 0.423431 0.0912599 0.110977 0.0842652 0.423431 0.423431 0.659515 0.746076 
0.380675 1.8982 1.84297 1.85073 1.71737 1.72012 1.66175 1.51721 1.31983 
1.22046 1.06095 0.808255 0.493997 0.31538 0.238346 0.221836 0.616393 0.876998 
1.14586 1.35125 1.42628 1.3313 1.45786 1.41528 1.29497 1.15765 0.959798 
0.947918 0.706845 0.715148 0.52938 0.384787 0.326012 0.265026 0.385597 0.306878 
0.322911 0.34252 0.36703 0.398495 0.232971 0.268205 0.280245 0.234057 0.321479 
0.140102 0.278055 0.109608 1.43954 1.35332 1.63499 2.30139 2.37401 2.35321 
2.40331 2.22033 2.16876 1.98433 1.89645 1.59118 1.42851 1.16786 1.1187 
0.834555 0.809761 0.434173 0.151174 0.100389 0.119954 0.392024 0.447565 0.356392 
0.262622 0.0913037 0.21471 0.225035 0.316088 0.286696 0.286696 0.2679 0.268972 
0.286898 0.344165 0.392741 0.353685 0.456888 0.430386 0.764646 0.71193 0.819121 
0.64395 0.59196 0.539017 0.594312 0.532438 0.418444 0.321352 0.278966 0.246399 
0.24935 0.0677105 0.379312 0.312521 0.476503 0.210171 0.158672 0.398926 0.441306 
0.982705 0.549593 0.376116 0.285182 0.270154 0.388405 0.374743 0.268088 0.196187 
0.184136 0.16808 0.213738 0.232947 0.177769 0.182021 0.162854 0.165258 0.176238 
0.23731 0.0714837 0.311682 0.127863 0.258075 0.286445 0.327775 0.190634 0.188451 