<?xml version="1.0"?>
<VTKFile type="UnstructuredGrid" version="0.1" byte_order="LittleEndian">
  <UnstructuredGrid>
    <Piece NumberOfCells="375" NumberOfPoints="624">
      <CellData Scalars="p (Pa)">
        <DataArray type="Float32" Name="p (Pa)" NumberOfComponents="1" format="ascii">
          -168808 -174589 -178212 -816867 -860878 -863238 -869523 -867173 -866684 -869274 -866765 -866144
          -867191 -868345 -869129 -165176 -172556 -176835 -848214 -861064 -862563 -869146 -867605 -866884
          -869765 -867090 -868387 -869605 -868414 -868330 -131160 -158983 -169965 -320483 -846825 -847128
          -866382 -867419 -866862 -869144 -867387 -867919 -869070 -867381 -862787 -149967 -163371 -169500
          -788308 -860375 -835717 -869166 -869479 -866783 -868521 -868742 -867661 -869564 -866242 -411855
          -130915 -158064 -169986 -321759 -848552 -861406 -866184 -869420 -867597 -869071 -868852 -868203
          -870209 -868475 -866528 -162121 -162096 -170106 -859023 -796508 -861886 -869398 -869296 -866966
          -869118 -868089 -868810 -871754 -869084 -869861 -162724 -143664 -164064 -857538 -356836 -857644
          -870412 -851515 -867597 -868129 -868382 -868005 -872214 -870110 -866798 -169023 -149874 -171863
          -858429 -340944 -860771 -863578 -434785 -866714 -869510 -867867 -867955 -869774 -865198 -380675
          -201998 -211014 -233279 -860368 -372287 -864352 -857584 -413514 -866595 -870436 -868746 -868220
          -870674 -864663 -380250 -339923 -853226 -826163 -864708 -437202 -866618 -359603 -377843 -866109
          -854005 -865115 -869882 -872034 -869932 -864834 -863956 -869583 -863159 -870850 -868514 -867988
          -865051 -845917 -868759 -321029 -381668 -866217 -867485 -868954 -870835 -869099 -865456 -358642
          -870854 -866730 -407256 -866538 -868388 -868606 -287636 -369207 -863577 -866653 -865521 -867500
          -868105 -865878 -374881 -873669 -873300 -849086 -867841 -868483 -872592 -335608 -824258 -868019
          -864755 -869729 -871053 -583648 -868581 -860876 -871804 -865775 -427239 -867598 -868275 -869312
          -278579 -365223 -866071 -856245 -868793 -859711 -321868 -859820 -809520 -867428 -869500 -866057
          -866221 -868278 -868492 -244570 -334382 -862928 -340950 -863045 -412322 -195255 -206042 -197440
          -861416 -862334 -845435 -866395 -868114 -869479 -251515 -353906 -857649 -339900 -864448 -867956
          -140020 -105673 -92113.6 -856399 -267015 -202480 -869322 -866888 -859762 -345159 -849194 -866976
          -843215 -872119 -855747 -103134 -71315.1 -58887.2 -837511 -193716 -116062 -868623 -858650 -280229
          -367997 -839298 -316406 -351947 -863018 -347640 -50184.3 -44034.7 -38993.6 -155693 -118483 -83288.2
          -862182 -852744 -227727 -858516 -331012 -209106 -346324 -861917 -329367 -31606.9 -29394.5 -26476.9
          -108390 -97143.6 -68137.3 -853368 -848495 -215548 -858188 -364513 -272456 -370266 -865534 -842909
          -18216.5 -17307.5 -15302.2 -82785.5 -79541.1 -53412.3 -836450 -847714 -208148 -847696 -856754 -861370
          -793745 -858853 -873301 -3491.04 -3873.08 -2852.69 -32146.5 -47762.4 -29506.8 -144775 -804329 -142673
          -126979 -184015 -788718 -123340 -176260 -819631 8789.65 8704.82 8889.89 -2007.55 -3539.14 -1928.87
          -28161.2 -50469.9 -30726 -30858.5 -41103.8 -68249 -31648.4 -41833.8 -74398.6 16343.9 16326.8 16351.6
          11627.6 11442.1 11567.4 3154.46 1814.19 2475.9 -839.76 -2447.99 -4738.44 -2423.8 -4257.78 -7264.53
          19774.4 19768.6 19770 16911.7 16872.8 16872.6 12288.6 12099.2 12069.9 9052.72 8684.54 8273.5
          7553.9 7093.94 6536
        </DataArray>
        <DataArray type="Float32" Name="saturation" NumberOfComponents="1" format="ascii">
          0.234644 0.234028 0.233652 0.209326 0.20868 0.208647 0.208559 0.208592 0.208598 0.208562 0.208597 0.208606
          0.208591 0.208575 0.208564 0.235042 0.234242 0.233794 0.208861 0.208677 0.208656 0.208564 0.208586 0.208596
          0.208555 0.208593 0.208575 0.208558 0.208574 0.208575 0.239246 0.235741 0.234519 0.223206 0.208881 0.208877
          0.208603 0.208588 0.208596 0.208564 0.208589 0.208581 0.208565 0.208589 0.208653 0.236808 0.235243 0.234569
          0.209772 0.208687 0.209043 0.208564 0.208559 0.208597 0.208573 0.20857 0.208585 0.208558 0.208605 0.219072
          0.239279 0.235847 0.234516 0.223139 0.208856 0.208673 0.208605 0.20856 0.208586 0.208565 0.208568 0.208577
          0.208549 0.208573 0.208601 0.235383 0.235386 0.234503 0.208706 0.209641 0.208666 0.20856 0.208562 0.208594
          0.208564 0.208579 0.208569 0.208528 0.208565 0.208554 0.235315 0.237591 0.235165 0.208727 0.221403 0.208726
          0.208546 0.208813 0.208586 0.208578 0.208575 0.20858 0.208521 0.208551 0.208597 0.23462 0.236819 0.234315
          0.208715 0.222162 0.208682 0.208642 0.218215 0.208598 0.208559 0.208582 0.208581 0.208555 0.208619 0.220341
          0.231366 0.230574 0.228765 0.208687 0.220705 0.208631 0.208727 0.219008 0.2086 0.208546 0.20857 0.208577
          0.208543 0.208627 0.220359 0.222212 0.208789 0.209185 0.208626 0.218128 0.208599 0.221275 0.220462 0.208606
          0.208778 0.20862 0.208554 0.208524 0.208553 0.208624 0.208637 0.208558 0.208648 0.20854 0.208573 0.20858
          0.208621 0.208894 0.208569 0.223177 0.220298 0.208605 0.208587 0.208567 0.20854 0.208565 0.208616 0.22132
          0.20854 0.208598 0.219251 0.2086 0.208575 0.208572 0.225064 0.220841 0.208642 0.208599 0.208615 0.208587
          0.208579 0.20861 0.220591 0.208501 0.208506 0.208848 0.208582 0.208573 0.208516 0.222427 0.209214 0.20858
          0.208625 0.208556 0.208537 0.213808 0.208572 0.20868 0.208527 0.208611 0.21849 0.208586 0.208576 0.208562
          0.225621 0.221019 0.208607 0.208746 0.208569 0.208697 0.223133 0.208695 0.209438 0.208588 0.208559 0.208607
          0.208605 0.208576 0.208573 0.22792 0.222488 0.208651 0.222162 0.208649 0.219054 0.231984 0.231006 0.231782
          0.208672 0.208659 0.208901 0.208602 0.208578 0.208559 0.227422 0.22154 0.208726 0.222214 0.20863 0.208581
          0.238059 0.243105 0.245486 0.208744 0.226365 0.231323 0.208562 0.208596 0.208696 0.221957 0.208847 0.208594
          0.208933 0.208523 0.208753 0.243532 0.249712 0.252651 0.209017 0.232129 0.241444 0.208571 0.208712 0.225518
          0.220895 0.208991 0.223424 0.221632 0.20865 0.221837 0.254938 0.256685 0.258209 0.236123 0.241075 0.247186
          0.208662 0.208796 0.229198 0.208714 0.222659 0.230739 0.2219 0.208665 0.222743 0.260609 0.26137 0.262406
          0.242658 0.244573 0.250431 0.208787 0.208857 0.230189 0.208718 0.221051 0.22601 0.220794 0.208615 0.208938
          0.265558 0.265926 0.266755 0.247287 0.247947 0.254066 0.209032 0.208868 0.230822 0.208868 0.208739 0.208673
          0.209685 0.208709 0.208506 0.272149 0.271959 0.272468 0.260426 0.255612 0.261331 0.237451 0.209519 0.237718
          0.239831 0.233066 0.209765 0.240355 0.233853 0.209284 0.278909 0.278857 0.27897 0.272896 0.272125 0.272936
          0.261803 0.25486 0.260909 0.260864 0.257561 0.250405 0.260595 0.25734 0.249035 0.283836 0.283824 0.283842
          0.280681 0.280562 0.280643 0.275637 0.274904 0.275264 0.273497 0.272672 0.271534 0.272685 0.271769 0.270323
          0.286315 0.286311 0.286312 0.284235 0.284208 0.284208 0.281107 0.280984 0.280965 0.279069 0.278845 0.278596
          0.278164 0.277891 0.277563
        </DataArray>
        <DataArray type="Float32" Name="process rank" NumberOfComponents="1" format="ascii">
          0 0 0 0 0 0 0 0 0 0 0 0
          0 0 0 0 0 0 0 0 0 0 0 0
          0 0 0 0 0 0 0 0 0 0 0 0
          0 0 0 0 0 0 0 0 0 0 0 0
          0 0 0 0 0 0 0 0 0 0 0 0
          0 0 0 0 0 0 0 0 0 0 0 0
          0 0 0 0 0 0 0 0 0 0 0 0
          0 0 0 0 0 0 0 0 0 0 0 0
          0 0 0 0 0 0 0 0 0 0 0 0
          0 0 0 0 0 0 0 0 0 0 0 0
          0 0 0 0 0 0 0 0 0 0 0 0
          0 0 0 0 0 0 0 0 0 0 0 0
          0 0 0 0 0 0 0 0 0 0 0 0
          0 0 0 0 0 0 0 0 0 0 0 0
          0 0 0 0 0 0 0 0 0 0 0 0
          0 0 0 0 0 0 0 0 0 0 0 0
          0 0 0 0 0 0 0 0 0 0 0 0
          0 0 0 0 0 0 0 0 0 0 0 0
          0 0 0 0 0 0 0 0 0 0 0 0
          0 0 0 0 0 0 0 0 0 0 0 0
          0 0 0 0 0 0 0 0 0 0 0 0
          0 0 0 0 0 0 0 0 0 0 0 0
          0 0 0 0 0 0 0 0 0 0 0 0
          0 0 0 0 0 0 0 0 0 0 0 0
          0 0 0 0 0 0 0 0 0 0 0 0
          0 0 0 0 0 0 0 0 0 0 0 0
          0 0 0 0 0 0 0 0 0 0 0 0
          0 0 0 0 0 0 0 0 0 0 0 0
          0 0 0 0 0 0 0 0 0 0 0 0
          0 0 0 0 0 0 0 0 0 0 0 0
          0 0 0 0 0 0 0 0 0 0 0 0
          0 0 0
        </DataArray>
      </CellData>
      <Points>
        <DataArray type="Float32" Name="Coordinates" NumberOfComponents="3" format="ascii">
          -0.01 -0.03 -0.25 -0.00333333 -0.03 -0.25 -0.01 -0.018 -0.25 -0.00333333 -0.018 -0.25
          -0.01 -0.03 -0.24 -0.00333333 -0.03 -0.24 -0.01 -0.018 -0.24 -0.00333333 -0.018 -0.24
          0.00333333 -0.03 -0.25 0.00333333 -0.018 -0.25 0.00333333 -0.03 -0.24 0.00333333 -0.018 -0.24
          0.01 -0.03 -0.25 0.01 -0.018 -0.25 0.01 -0.03 -0.24 0.01 -0.018 -0.24
          -0.01 -0.006 -0.25 -0.00333333 -0.006 -0.25 -0.01 -0.006 -0.24 -0.00333333 -0.006 -0.24
          0.00333333 -0.006 -0.25 0.00333333 -0.006 -0.24 0.01 -0.006 -0.25 0.01 -0.006 -0.24
          -0.01 0.006 -0.25 -0.00333333 0.006 -0.25 -0.01 0.006 -0.24 -0.00333333 0.006 -0.24
          0.00333333 0.006 -0.25 0.00333333 0.006 -0.24 0.01 0.006 -0.25 0.01 0.006 -0.24
          -0.01 0.018 -0.25 -0.00333333 0.018 -0.25 -0.01 0.018 -0.24 -0.00333333 0.018 -0.24
          0.00333333 0.018 -0.25 0.00333333 0.018 -0.24 0.01 0.018 -0.25 0.01 0.018 -0.24
          -0.01 0.03 -0.25 -0.00333333 0.03 -0.25 -0.01 0.03 -0.24 -0.00333333 0.03 -0.24
          0.00333333 0.03 -0.25 0.00333333 0.03 -0.24 0.01 0.03 -0.25 0.01 0.03 -0.24
          -0.01 -0.03 -0.23 -0.00333333 -0.03 -0.23 -0.01 -0.018 -0.23 -0.00333333 -0.018 -0.23
          0.00333333 -0.03 -0.23 0.00333333 -0.018 -0.23 0.01 -0.03 -0.23 0.01 -0.018 -0.23
          -0.01 -0.006 -0.23 -0.00333333 -0.006 -0.23 0.00333333 -0.006 -0.23 0.01 -0.006 -0.23
          -0.01 0.006 -0.23 -0.00333333 0.006 -0.23 0.00333333 0.006 -0.23 0.01 0.006 -0.23
          -0.01 0.018 -0.23 -0.00333333 0.018 -0.23 0.00333333 0.018 -0.23 0.01 0.018 -0.23
          -0.01 0.03 -0.23 -0.00333333 0.03 -0.23 0.00333333 0.03 -0.23 0.01 0.03 -0.23
          -0.01 -0.03 -0.22 -0.00333333 -0.03 -0.22 -0.01 -0.018 -0.22 -0.00333333 -0.018 -0.22
          0.00333333 -0.03 -0.22 0.00333333 -0.018 -0.22 0.01 -0.03 -0.22 0.01 -0.018 -0.22
          -0.01 -0.006 -0.22 -0.00333333 -0.006 -0.22 0.00333333 -0.006 -0.22 0.01 -0.006 -0.22
          -0.01 0.006 -0.22 -0.00333333 0.006 -0.22 0.00333333 0.006 -0.22 0.01 0.006 -0.22
          -0.01 0.018 -0.22 -0.00333333 0.018 -0.22 0.00333333 0.018 -0.22 0.01 0.018 -0.22
          -0.01 0.03 -0.22 -0.00333333 0.03 -0.22 0.00333333 0.03 -0.22 0.01 0.03 -0.22
          -0.01 -0.03 -0.21 -0.00333333 -0.03 -0.21 -0.01 -0.018 -0.21 -0.00333333 -0.018 -0.21
          0.00333333 -0.03 -0.21 0.00333333 -0.018 -0.21 0.01 -0.03 -0.21 0.01 -0.018 -0.21
          -0.01 -0.006 -0.21 -0.00333333 -0.006 -0.21 0.00333333 -0.006 -0.21 0.01 -0.006 -0.21
          -0.01 0.006 -0.21 -0.00333333 0.006 -0.21 0.00333333 0.006 -0.21 0.01 0.006 -0.21
          -0.01 0.018 -0.21 -0.00333333 0.018 -0.21 0.00333333 0.018 -0.21 0.01 0.018 -0.21
          -0.01 0.03 -0.21 -0.00333333 0.03 -0.21 0.00333333 0.03 -0.21 0.01 0.03 -0.21
          -0.01 -0.03 -0.2 -0.00333333 -0.03 -0.2 -0.01 -0.018 -0.2 -0.00333333 -0.018 -0.2
          0.00333333 -0.03 -0.2 0.00333333 -0.018 -0.2 0.01 -0.03 -0.2 0.01 -0.018 -0.2
          -0.01 -0.006 -0.2 -0.00333333 -0.006 -0.2 0.00333333 -0.006 -0.2 0.01 -0.006 -0.2
          -0.01 0.006 -0.2 -0.00333333 0.006 -0.2 0.00333333 0.006 -0.2 0.01 0.006 -0.2
          -0.01 0.018 -0.2 -0.00333333 0.018 -0.2 0.00333333 0.018 -0.2 0.01 0.018 -0.2
          -0.01 0.03 -0.2 -0.00333333 0.03 -0.2 0.00333333 0.03 -0.2 0.01 0.03 -0.2
          -0.01 -0.03 -0.19 -0.00333333 -0.03 -0.19 -0.01 -0.018 -0.19 -0.00333333 -0.018 -0.19
          0.00333333 -0.03 -0.19 0.00333333 -0.018 -0.19 0.01 -0.03 -0.19 0.01 -0.018 -0.19
          -0.01 -0.006 -0.19 -0.00333333 -0.006 -0.19 0.00333333 -0.006 -0.19 0.01 -0.006 -0.19
          -0.01 0.006 -0.19 -0.00333333 0.006 -0.19 0.00333333 0.006 -0.19 0.01 0.006 -0.19
          -0.01 0.018 -0.19 -0.00333333 0.018 -0.19 0.00333333 0.018 -0.19 0.01 0.018 -0.19
          -0.01 0.03 -0.19 -0.00333333 0.03 -0.19 0.00333333 0.03 -0.19 0.01 0.03 -0.19
          -0.01 -0.03 -0.18 -0.00333333 -0.03 -0.18 -0.01 -0.018 -0.18 -0.00333333 -0.018 -0.18
          0.00333333 -0.03 -0.18 0.00333333 -0.018 -0.18 0.01 -0.03 -0.18 0.01 -0.018 -0.18
          -0.01 -0.006 -0.18 -0.00333333 -0.006 -0.18 0.00333333 -0.006 -0.18 0.01 -0.006 -0.18
          -0.01 0.006 -0.18 -0.00333333 0.006 -0.18 0.00333333 0.006 -0.18 0.01 0.006 -0.18
          -0.01 0.018 -0.18 -0.00333333 0.018 -0.18 0.00333333 0.018 -0.18 0.01 0.018 -0.18
          -0.01 0.03 -0.18 -0.00333333 0.03 -0.18 0.00333333 0.03 -0.18 0.01 0.03 -0.18
          -0.01 -0.03 -0.17 -0.00333333 -0.03 -0.17 -0.01 -0.018 -0.17 -0.00333333 -0.018 -0.17
          0.00333333 -0.03 -0.17 0.00333333 -0.018 -0.17 0.01 -0.03 -0.17 0.01 -0.018 -0.17
          -0.01 -0.006 -0.17 -0.00333333 -0.006 -0.17 0.00333333 -0.006 -0.17 0.01 -0.006 -0.17
          -0.01 0.006 -0.17 -0.00333333 0.006 -0.17 0.00333333 0.006 -0.17 0.01 0.006 -0.17
          -0.01 0.018 -0.17 -0.00333333 0.018 -0.17 0.00333333 0.018 -0.17 0.01 0.018 -0.17
          -0.01 0.03 -0.17 -0.00333333 0.03 -0.17 0.00333333 0.03 -0.17 0.01 0.03 -0.17
          -0.01 -0.03 -0.16 -0.00333333 -0.03 -0.16 -0.01 -0.018 -0.16 -0.00333333 -0.018 -0.16
          0.00333333 -0.03 -0.16 0.00333333 -0.018 -0.16 0.01 -0.03 -0.16 0.01 -0.018 -0.16
          -0.01 -0.006 -0.16 -0.00333333 -0.006 -0.16 0.00333333 -0.006 -0.16 0.01 -0.006 -0.16
          -0.01 0.006 -0.16 -0.00333333 0.006 -0.16 0.00333333 0.006 -0.16 0.01 0.006 -0.16
          -0.01 0.018 -0.16 -0.00333333 0.018 -0.16 0.00333333 0.018 -0.16 0.01 0.018 -0.16
          -0.01 0.03 -0.16 -0.00333333 0.03 -0.16 0.00333333 0.03 -0.16 0.01 0.03 -0.16
          -0.01 -0.03 -0.15 -0.00333333 -0.03 -0.15 -0.01 -0.018 -0.15 -0.00333333 -0.018 -0.15
          0.00333333 -0.03 -0.15 0.00333333 -0.018 -0.15 0.01 -0.03 -0.15 0.01 -0.018 -0.15
          -0.01 -0.006 -0.15 -0.00333333 -0.006 -0.15 0.00333333 -0.006 -0.15 0.01 -0.006 -0.15
          -0.01 0.006 -0.15 -0.00333333 0.006 -0.15 0.00333333 0.006 -0.15 0.01 0.006 -0.15
          -0.01 0.018 -0.15 -0.00333333 0.018 -0.15 0.00333333 0.018 -0.15 0.01 0.018 -0.15
          -0.01 0.03 -0.15 -0.00333333 0.03 -0.15 0.00333333 0.03 -0.15 0.01 0.03 -0.15
          -0.01 -0.03 -0.14 -0.00333333 -0.03 -0.14 -0.01 -0.018 -0.14 -0.00333333 -0.018 -0.14
          0.00333333 -0.03 -0.14 0.00333333 -0.018 -0.14 0.01 -0.03 -0.14 0.01 -0.018 -0.14
          -0.01 -0.006 -0.14 -0.00333333 -0.006 -0.14 0.00333333 -0.006 -0.14 0.01 -0.006 -0.14
          -0.01 0.006 -0.14 -0.00333333 0.006 -0.14 0.00333333 0.006 -0.14 0.01 0.006 -0.14
          -0.01 0.018 -0.14 -0.00333333 0.018 -0.14 0.00333333 0.018 -0.14 0.01 0.018 -0.14
          -0.01 0.03 -0.14 -0.00333333 0.03 -0.14 0.00333333 0.03 -0.14 0.01 0.03 -0.14
          -0.01 -0.03 -0.13 -0.00333333 -0.03 -0.13 -0.01 -0.018 -0.13 -0.00333333 -0.018 -0.13
          0.00333333 -0.03 -0.13 0.00333333 -0.018 -0.13 0.01 -0.03 -0.13 0.01 -0.018 -0.13
          -0.01 -0.006 -0.13 -0.00333333 -0.006 -0.13 0.00333333 -0.006 -0.13 0.01 -0.006 -0.13
          -0.01 0.006 -0.13 -0.00333333 0.006 -0.13 0.00333333 0.006 -0.13 0.01 0.006 -0.13
          -0.01 0.018 -0.13 -0.00333333 0.018 -0.13 0.00333333 0.018 -0.13 0.01 0.018 -0.13
          -0.01 0.03 -0.13 -0.00333333 0.03 -0.13 0.00333333 0.03 -0.13 0.01 0.03 -0.13
          -0.01 -0.03 -0.12 -0.00333333 -0.03 -0.12 -0.01 -0.018 -0.12 -0.00333333 -0.018 -0.12
          0.00333333 -0.03 -0.12 0.00333333 -0.018 -0.12 0.01 -0.03 -0.12 0.01 -0.018 -0.12
          -0.01 -0.006 -0.12 -0.00333333 -0.006 -0.12 0.00333333 -0.006 -0.12 0.01 -0.006 -0.12
          -0.01 0.006 -0.12 -0.00333333 0.006 -0.12 0.00333333 0.006 -0.12 0.01 0.006 -0.12
          -0.01 0.018 -0.12 -0.00333333 0.018 -0.12 0.00333333 0.018 -0.12 0.01 0.018 -0.12
          -0.01 0.03 -0.12 -0.00333333 0.03 -0.12 0.00333333 0.03 -0.12 0.01 0.03 -0.12
          -0.01 -0.03 -0.11 -0.00333333 -0.03 -0.11 -0.01 -0.018 -0.11 -0.00333333 -0.018 -0.11
          0.00333333 -0.03 -0.11 0.00333333 -0.018 -0.11 0.01 -0.03 -0.11 0.01 -0.018 -0.11
          -0.01 -0.006 -0.11 -0.00333333 -0.006 -0.11 0.00333333 -0.006 -0.11 0.01 -0.006 -0.11
          -0.01 0.006 -0.11 -0.00333333 0.006 -0.11 0.00333333 0.006 -0.11 0.01 0.006 -0.11
          -0.01 0.018 -0.11 -0.00333333 0.018 -0.11 0.00333333 0.018 -0.11 0.01 0.018 -0.11
          -0.01 0.03 -0.11 -0.00333333 0.03 -0.11 0.00333333 0.03 -0.11 0.01 0.03 -0.11
          -0.01 -0.03 -0.1 -0.00333333 -0.03 -0.1 -0.01 -0.018 -0.1 -0.00333333 -0.018 -0.1
          0.00333333 -0.03 -0.1 0.00333333 -0.018 -0.1 0.01 -0.03 -0.1 0.01 -0.018 -0.1
          -0.01 -0.006 -0.1 -0.00333333 -0.006 -0.1 0.00333333 -0.006 -0.1 0.01 -0.006 -0.1
          -0.01 0.006 -0.1 -0.00333333 0.006 -0.1 0.00333333 0.006 -0.1 0.01 0.006 -0.1
          -0.01 0.018 -0.1 -0.00333333 0.018 -0.1 0.00333333 0.018 -0.1 0.01 0.018 -0.1
          -0.01 0.03 -0.1 -0.00333333 0.03 -0.1 0.00333333 0.03 -0.1 0.01 0.03 -0.1
          -0.01 -0.03 -0.09 -0.00333333 -0.03 -0.09 -0.01 -0.018 -0.09 -0.00333333 -0.018 -0.09
          0.00333333 -0.03 -0.09 0.00333333 -0.018 -0.09 0.01 -0.03 -0.09 0.01 -0.018 -0.09
          -0.01 -0.006 -0.09 -0.00333333 -0.006 -0.09 0.00333333 -0.006 -0.09 0.01 -0.006 -0.09
          -0.01 0.006 -0.09 -0.00333333 0.006 -0.09 0.00333333 0.006 -0.09 0.01 0.006 -0.09
          -0.01 0.018 -0.09 -0.00333333 0.018 -0.09 0.00333333 0.018 -0.09 0.01 0.018 -0.09
          -0.01 0.03 -0.09 -0.00333333 0.03 -0.09 0.00333333 0.03 -0.09 0.01 0.03 -0.09
          -0.01 -0.03 -0.08 -0.00333333 -0.03 -0.08 -0.01 -0.018 -0.08 -0.00333333 -0.018 -0.08
          0.00333333 -0.03 -0.08 0.00333333 -0.018 -0.08 0.01 -0.03 -0.08 0.01 -0.018 -0.08
          -0.01 -0.006 -0.08 -0.00333333 -0.006 -0.08 0.00333333 -0.006 -0.08 0.01 -0.006 -0.08
          -0.01 0.006 -0.08 -0.00333333 0.006 -0.08 0.00333333 0.006 -0.08 0.01 0.006 -0.08
          -0.01 0.018 -0.08 -0.00333333 0.018 -0.08 0.00333333 0.018 -0.08 0.01 0.018 -0.08
          -0.01 0.03 -0.08 -0.00333333 0.03 -0.08 0.00333333 0.03 -0.08 0.01 0.03 -0.08
          -0.01 -0.03 -0.07 -0.00333333 -0.03 -0.07 -0.01 -0.018 -0.07 -0.00333333 -0.018 -0.07
          0.00333333 -0.03 -0.07 0.00333333 -0.018 -0.07 0.01 -0.03 -0.07 0.01 -0.018 -0.07
          -0.01 -0.006 -0.07 -0.00333333 -0.006 -0.07 0.00333333 -0.006 -0.07 0.01 -0.006 -0.07
          -0.01 0.006 -0.07 -0.00333333 0.006 -0.07 0.00333333 0.006 -0.07 0.01 0.006 -0.07
          -0.01 0.018 -0.07 -0.00333333 0.018 -0.07 0.00333333 0.018 -0.07 0.01 0.018 -0.07
          -0.01 0.03 -0.07 -0.00333333 0.03 -0.07 0.00333333 0.03 -0.07 0.01 0.03 -0.07
          -0.01 -0.03 -0.06 -0.00333333 -0.03 -0.06 -0.01 -0.018 -0.06 -0.00333333 -0.018 -0.06
          0.00333333 -0.03 -0.06 0.00333333 -0.018 -0.06 0.01 -0.03 -0.06 0.01 -0.018 -0.06
          -0.01 -0.006 -0.06 -0.00333333 -0.006 -0.06 0.00333333 -0.006 -0.06 0.01 -0.006 -0.06
          -0.01 0.006 -0.06 -0.00333333 0.006 -0.06 0.00333333 0.006 -0.06 0.01 0.006 -0.06
          -0.01 0.018 -0.06 -0.00333333 0.018 -0.06 0.00333333 0.018 -0.06 0.01 0.018 -0.06
          -0.01 0.03 -0.06 -0.00333333 0.03 -0.06 0.00333333 0.03 -0.06 0.01 0.03 -0.06
          -0.01 -0.03 -0.05 -0.00333333 -0.03 -0.05 -0.01 -0.018 -0.05 -0.00333333 -0.018 -0.05
          0.00333333 -0.03 -0.05 0.00333333 -0.018 -0.05 0.01 -0.03 -0.05 0.01 -0.018 -0.05
          -0.01 -0.006 -0.05 -0.00333333 -0.006 -0.05 0.00333333 -0.006 -0.05 0.01 -0.006 -0.05
          -0.01 0.006 -0.05 -0.00333333 0.006 -0.05 0.00333333 0.006 -0.05 0.01 0.006 -0.05
          -0.01 0.018 -0.05 -0.00333333 0.018 -0.05 0.00333333 0.018 -0.05 0.01 0.018 -0.05
          -0.01 0.03 -0.05 -0.00333333 0.03 -0.05 0.00333333 0.03 -0.05 0.01 0.03 -0.05
          -0.01 -0.03 -0.04 -0.00333333 -0.03 -0.04 -0.01 -0.018 -0.04 -0.00333333 -0.018 -0.04
          0.00333333 -0.03 -0.04 0.00333333 -0.018 -0.04 0.01 -0.03 -0.04 0.01 -0.018 -0.04
          -0.01 -0.006 -0.04 -0.00333333 -0.006 -0.04 0.00333333 -0.006 -0.04 0.01 -0.006 -0.04
          -0.01 0.006 -0.04 -0.00333333 0.006 -0.04 0.00333333 0.006 -0.04 0.01 0.006 -0.04
          -0.01 0.018 -0.04 -0.00333333 0.018 -0.04 0.00333333 0.018 -0.04 0.01 0.018 -0.04
          -0.01 0.03 -0.04 -0.00333333 0.03 -0.04 0.00333333 0.03 -0.04 0.01 0.03 -0.04
          -0.01 -0.03 -0.03 -0.00333333 -0.03 -0.03 -0.01 -0.018 -0.03 -0.00333333 -0.018 -0.03
          0.00333333 -0.03 -0.03 0.00333333 -0.018 -0.03 0.01 -0.03 -0.03 0.01 -0.018 -0.03
          -0.01 -0.006 -0.03 -0.00333333 -0.006 -0.03 0.00333333 -0.006 -0.03 0.01 -0.006 -0.03
          -0.01 0.006 -0.03 -0.00333333 0.006 -0.03 0.00333333 0.006 -0.03 0.01 0.006 -0.03
          -0.01 0.018 -0.03 -0.00333333 0.018 -0.03 0.00333333 0.018 -0.03 0.01 0.018 -0.03
          -0.01 0.03 -0.03 -0.00333333 0.03 -0.03 0.00333333 0.03 -0.03 0.01 0.03 -0.03
          -0.01 -0.03 -0.02 -0.00333333 -0.03 -0.02 -0.01 -0.018 -0.02 -0.00333333 -0.018 -0.02
          0.00333333 -0.03 -0.02 0.00333333 -0.018 -0.02 0.01 -0.03 -0.02 0.01 -0.018 -0.02
          -0.01 -0.006 -0.02 -0.00333333 -0.006 -0.02 0.00333333 -0.006 -0.02 0.01 -0.006 -0.02
          -0.01 0.006 -0.02 -0.00333333 0.006 -0.02 0.00333333 0.006 -0.02 0.01 0.006 -0.02
          -0.01 0.018 -0.02 -0.00333333 0.018 -0.02 0.00333333 0.018 -0.02 0.01 0.018 -0.02
          -0.01 0.03 -0.02 -0.00333333 0.03 -0.02 0.00333333 0.03 -0.02 0.01 0.03 -0.02
          -0.01 -0.03 -0.01 -0.00333333 -0.03 -0.01 -0.01 -0.018 -0.01 -0.00333333 -0.018 -0.01
          0.00333333 -0.03 -0.01 0.00333333 -0.018 -0.01 0.01 -0.03 -0.01 0.01 -0.018 -0.01
          -0.01 -0.006 -0.01 -0.00333333 -0.006 -0.01 0.00333333 -0.006 -0.01 0.01 -0.006 -0.01
          -0.01 0.006 -0.01 -0.00333333 0.006 -0.01 0.00333333 0.006 -0.01 0.01 0.006 -0.01
          -0.01 0.018 -0.01 -0.00333333 0.018 -0.01 0.00333333 0.018 -0.01 0.01 0.018 -0.01
          -0.01 0.03 -0.01 -0.00333333 0.03 -0.01 0.00333333 0.03 -0.01 0.01 0.03 -0.01
          -0.01 -0.03 5.20417e-18 -0.00333333 -0.03 5.20417e-18 -0.01 -0.018 5.20417e-18 -0.00333333 -0.018 5.20417e-18
          0.00333333 -0.03 5.20417e-18 0.00333333 -0.018 5.20417e-18 0.01 -0.03 5.20417e-18 0.01 -0.018 5.20417e-18
          -0.01 -0.006 5.20417e-18 -0.00333333 -0.006 5.20417e-18 0.00333333 -0.006 5.20417e-18 0.01 -0.006 5.20417e-18
          -0.01 0.006 5.20417e-18 -0.00333333 0.006 5.20417e-18 0.00333333 0.006 5.20417e-18 0.01 0.006 5.20417e-18
          -0.01 0.018 5.20417e-18 -0.00333333 0.018 5.20417e-18 0.00333333 0.018 5.20417e-18 0.01 0.018 5.20417e-18
          -0.01 0.03 5.20417e-18 -0.00333333 0.03 5.20417e-18 0.00333333 0.03 5.20417e-18 0.01 0.03 5.20417e-18
        </DataArray>
      </Points>
      <Cells>
        <DataArray type="Int32" Name="connectivity" NumberOfComponents="1" format="ascii">
          0 1 3 2 4 5 7 6 1 8 9 3
          5 10 11 7 8 12 13 9 10 14 15 11
          2 3 17 16 6 7 19 18 3 9 20 17
          7 11 21 19 9 13 22 20 11 15 23 21
          16 17 25 24 18 19 27 26 17 20 28 25
          19 21 29 27 20 22 30 28 21 23 31 29
          24 25 33 32 26 27 35 34 25 28 36 33
          27 29 37 35 28 30 38 36 29 31 39 37
          32 33 41 40 34 35 43 42 33 36 44 41
          35 37 45 43 36 38 46 44 37 39 47 45
          4 5 7 6 48 49 51 50 5 10 11 7
          49 52 53 51 10 14 15 11 52 54 55 53
          6 7 19 18 50 51 57 56 7 11 21 19
          51 53 58 57 11 15 23 21 53 55 59 58
          18 19 27 26 56 57 61 60 19 21 29 27
          57 58 62 61 21 23 31 29 58 59 63 62
          26 27 35 34 60 61 65 64 27 29 37 35
          61 62 66 65 29 31 39 37 62 63 67 66
          34 35 43 42 64 65 69 68 35 37 45 43
          65 66 70 69 37 39 47 45 66 67 71 70
          48 49 51 50 72 73 75 74 49 52 53 51
          73 76 77 75 52 54 55 53 76 78 79 77
          50 51 57 56 74 75 81 80 51 53 58 57
          75 77 82 81 53 55 59 58 77 79 83 82
          56 57 61 60 80 81 85 84 57 58 62 61
          81 82 86 85 58 59 63 62 82 83 87 86
          60 61 65 64 84 85 89 88 61 62 66 65
          85 86 90 89 62 63 67 66 86 87 91 90
          64 65 69 68 88 89 93 92 65 66 70 69
          89 90 94 93 66 67 71 70 90 91 95 94
          72 73 75 74 96 97 99 98 73 76 77 75
          97 100 101 99 76 78 79 77 100 102 103 101
          74 75 81 80 98 99 105 104 75 77 82 81
          99 101 106 105 77 79 83 82 101 103 107 106
          80 81 85 84 104 105 109 108 81 82 86 85
          105 106 110 109 82 83 87 86 106 107 111 110
          84 85 89 88 108 109 113 112 85 86 90 89
          109 110 114 113 86 87 91 90 110 111 115 114
          88 89 93 92 112 113 117 116 89 90 94 93
          113 114 118 117 90 91 95 94 114 115 119 118
          96 97 99 98 120 121 123 122 97 100 101 99
          121 124 125 123 100 102 103 101 124 126 127 125
          98 99 105 104 122 123 129 128 99 101 106 105
          123 125 130 129 101 103 107 106 125 127 131 130
          104 105 109 108 128 129 133 132 105 106 110 109
          129 130 134 133 106 107 111 110 130 131 135 134
          108 109 113 112 132 133 137 136 109 110 114 113
          133 134 138 137 110 111 115 114 134 135 139 138
          112 113 117 116 136 137 141 140 113 114 118 117
          137 138 142 141 114 115 119 118 138 139 143 142
          120 121 123 122 144 145 147 146 121 124 125 123
          145 148 149 147 124 126 127 125 148 150 151 149
          122 123 129 128 146 147 153 152 123 125 130 129
          147 149 154 153 125 127 131 130 149 151 155 154
          128 129 133 132 152 153 157 156 129 130 134 133
          153 154 158 157 130 131 135 134 154 155 159 158
          132 133 137 136 156 157 161 160 133 134 138 137
          157 158 162 161 134 135 139 138 158 159 163 162
          136 137 141 140 160 161 165 164 137 138 142 141
          161 162 166 165 138 139 143 142 162 163 167 166
          144 145 147 146 168 169 171 170 145 148 149 147
          169 172 173 171 148 150 151 149 172 174 175 173
          146 147 153 152 170 171 177 176 147 149 154 153
          171 173 178 177 149 151 155 154 173 175 179 178
          152 153 157 156 176 177 181 180 153 154 158 157
          177 178 182 181 154 155 159 158 178 179 183 182
          156 157 161 160 180 181 185 184 157 158 162 161
          181 182 186 185 158 159 163 162 182 183 187 186
          160 161 165 164 184 185 189 188 161 162 166 165
          185 186 190 189 162 163 167 166 186 187 191 190
          168 169 171 170 192 193 195 194 169 172 173 171
          193 196 197 195 172 174 175 173 196 198 199 197
          170 171 177 176 194 195 201 200 171 173 178 177
          195 197 202 201 173 175 179 178 197 199 203 202
          176 177 181 180 200 201 205 204 177 178 182 181
          201 202 206 205 178 179 183 182 202 203 207 206
          180 181 185 184 204 205 209 208 181 182 186 185
          205 206 210 209 182 183 187 186 206 207 211 210
          184 185 189 188 208 209 213 212 185 186 190 189
          209 210 214 213 186 187 191 190 210 211 215 214
          192 193 195 194 216 217 219 218 193 196 197 195
          217 220 221 219 196 198 199 197 220 222 223 221
          194 195 201 200 218 219 225 224 195 197 202 201
          219 221 226 225 197 199 203 202 221 223 227 226
          200 201 205 204 224 225 229 228 201 202 206 205
          225 226 230 229 202 203 207 206 226 227 231 230
          204 205 209 208 228 229 233 232 205 206 210 209
          229 230 234 233 206 207 211 210 230 231 235 234
          208 209 213 212 232 233 237 236 209 210 214 213
          233 234 238 237 210 211 215 214 234 235 239 238
          216 217 219 218 240 241 243 242 217 220 221 219
          241 244 245 243 220 222 223 221 244 246 247 245
          218 219 225 224 242 243 249 248 219 221 226 225
          243 245 250 249 221 223 227 226 245 247 251 250
          224 225 229 228 248 249 253 252 225 226 230 229
          249 250 254 253 226 227 231 230 250 251 255 254
          228 229 233 232 252 253 257 256 229 230 234 233
          253 254 258 257 230 231 235 234 254 255 259 258
          232 233 237 236 256 257 261 260 233 234 238 237
          257 258 262 261 234 235 239 238 258 259 263 262
          240 241 243 242 264 265 267 266 241 244 245 243
          265 268 269 267 244 246 247 245 268 270 271 269
          242 243 249 248 266 267 273 272 243 245 250 249
          267 269 274 273 245 247 251 250 269 271 275 274
          248 249 253 252 272 273 277 276 249 250 254 253
          273 274 278 277 250 251 255 254 274 275 279 278
          252 253 257 256 276 277 281 280 253 254 258 257
          277 278 282 281 254 255 259 258 278 279 283 282
          256 257 261 260 280 281 285 284 257 258 262 261
          281 282 286 285 258 259 263 262 282 283 287 286
          264 265 267 266 288 289 291 290 265 268 269 267
          289 292 293 291 268 270 271 269 292 294 295 293
          266 267 273 272 290 291 297 296 267 269 274 273
          291 293 298 297 269 271 275 274 293 295 299 298
          272 273 277 276 296 297 301 300 273 274 278 277
          297 298 302 301 274 275 279 278 298 299 303 302
          276 277 281 280 300 301 305 304 277 278 282 281
          301 302 306 305 278 279 283 282 302 303 307 306
          280 281 285 284 304 305 309 308 281 282 286 285
          305 306 310 309 282 283 287 286 306 307 311 310
          288 289 291 290 312 313 315 314 289 292 293 291