<?xml version="1.0"?><VTKFile type="PolyData" version="0.1" byte_order="LittleEndian">
<PolyData>
<Piece NumberOfLines="3149" NumberOfPoints="19274">
<PointData Scalars=" PointData">
<DataArray type="Float32" Name="time" NumberOfComponents="1" format="ascii" >
0 0.0196326 0.112034 0.123619 0.206638 0.300127 0.309554 0.403647 0.416414 0.511138 0.52001 0.61535 0.627263 0.723245 0.754304 0.851052 0.874432 0.971911 0.98581 1.08397 1.12864 1.22768 1.24612 1.34589 1.36246 1.46297 1.47865 1.57988 1.58729 1.68143 1.78395 1.82253 1.92597 1.94597 2.05021 2.08277 2.18791 2.22619 2.33228 2.37297 2.48004 2.49839 2.6063 2.6411 2.74998 2.77443 2.88422 2.91208 3.02282 3.05093 3.16264 3.18334 3.29598 3.32737 3.44103 3.48823 3.60276 3.7184 3.74818 3.86487 3.87967 3.99732 4.03045 4.14922 4.16474 4.28451 4.31073 4.43161 4.45438 4.57634 4.62348 4.74675 4.7808 4.90528 4.9465 5.07228 5.11534 5.24246 5.28599 5.40854 5.53802 5.56617 5.69693 5.70027 5.83138 5.96433 5.97316 6.10612 6.24138 6.28693 6.42373 6.42505 6.56304 6.56615 6.70536 6.72112 6.8617 6.91514 7.05744 7.08411 7.22792 7.26995 7.41544 7.45044 7.59759 7.64468 7.79363 7.82221 7.97283 7.98426 8.13642 8.17418 8.32041 8.4758 8.51561 8.67292 8.70919 8.86842 8.95667 9.11839 9.15631 9.28972 9.45485 9.49352 9.65214 9.82107 9.89314 10 3.30287 4 3.43058 3.54911 3.8331 4.20488 5 5.00916 7 3.78934 3.8553 3.95095 4.12757 5 4.17146 4.2318 4.31661 4.46054 5 4.75534 4.81109 4.88969 5.02418 6 9.49997 9.55255 9.62946 9.77533 10 3.53269 3.66776 5 3.65943 5 3.79123 3.87472 4.07091 4.4028 4.92814 7 4.15569 4.20531 4.27666 4.40539 5 4.44484 4.50557 4.59164 4.7408 6 5.0439 5.10309 5.19163 5.37215 6 3.9192 4.02756 4.27871 4.6091 5.03017 5.5425 6 6.5389 9 4.31183 4.36641 4.44384 4.57848 5 4.62344 4.68351 4.76657 4.90212 5.32935 6 5.05668 5.11634 5.20441 5.37619 6 5.66553 5.72538 5.80846 5.94528 6.41158 7 6.56098 6.61408 6.68787 6.8097 7.23546 8 7.70304 7.76029 7.84088 7.97826 8.90855 9 4.05189 4.12348 4.35008 4.62944 5.06831 5.73074 7 4.31168 4.36389 4.43638 4.55583 4.96516 6 4.59677 4.6539 4.73327 4.86416 5.31691 6 4.97905 5.03741 5.11892 5.25513 5.80285 6 5.71061 5.76101 5.83165 5.95076 6.50576 7 4.20935 5 4.35851 4.4879 6 4.49704 4.59917 4.81787 5.06221 5.40625 5.92108 6 6.68927 9 4.88258 4.93542 5.01104 5.1456 6 5.1613 5.21663 5.29666 5.44345 6 5.49057 5.54209 5.61495 5.74057 7 6.00036 6.06466 6.15436 6.30376 6.87934 7 6.95242 7.00553 7.07891 7.19832 7.56721 8 7.13525 7.19141 7.27203 7.41671 8 4.67505 6 4.82175 6 4.9673 5.09599 6 5.11292 5.2239 5.46557 5.81824 6 6.39786 8 5.4721 5.52775 5.60468 5.73012 6.12333 7 5.81378 5.87979 5.97924 6.18704 7 6.42117 6.47681 6.55486 6.68669 7.32631 8 6.84162 6.90011 6.98303 7.12701 8 5.24933 6 5.36772 5.46725 5.72642 6.04186 6.50776 7 7.24889 9 5.72404 5.78149 5.86582 6.02739 7 6.06077 6.11985 6.20594 6.36729 7 6.51028 6.57657 6.66815 6.81718 7.27693 8 7.32397 7.38698 7.47873 7.65041 9 8.8129 8.86753 8.94366 9.07017 9.54475 10 5.54551 7 5.70138 5.88513 7 5.8745 6.02416 6.27619 6.59028 6.92955 7.44261 8.156 9 9.16672 10 6.3295 6.38474 6.46144 6.5878 7.02023 8 6.63482 6.69656 6.78277 6.92684 7.50508 8 7.03031 7.0841 7.15832 7.27883 7.64426 8 7.48195 7.53427 7.60835 7.73651 9 8.23631 8.30192 8.39889 8.58888 9 9.56182 9.62499 9.71825 9.90009 10 6.05641 6.15265 7 6.24304 6.34947 6.62172 6.96729 7.38198 8 8.31487 10 6.60925 6.66741 6.74856 6.88384 7.41036 8 6.95768 7.01634 7.09782 7.23213 7.69466 8 7.44006 7.49904 7.58305 7.73069 9 8.12129 8.18081 8.26447 8.40649 9 9.76093 9.82086 9.90586 10 6.40289 8 6.58518 6.67425 6.99754 8 6.97755 7.04405 7.13843 7.30271 8 6.75591 8 6.93258 7.00737 7.21677 7.45228 7.66318 7.96525 8.35354 8.93751 9.58704 10 7.19842 7.25782 7.34129 7.48299 8 7.43597 7.49268 7.57247 7.70825 8.54552 9 7.70852 7.76045 7.83433 7.96367 9 7.95838 8.01172 8.09287 8.26882 9 8.32801 8.39148 8.47978 8.62597 9.15131 10 8.83 8.88508 8.96218 9.09171 9.65583 10 9.67325 9.74336 9.84343 10 7.11124 8 7.28203 7.39893 7.74434 8 8.40617 10 7.77768 7.83369 7.90978 8.02895 8.32177 9 8.3641 8.42817 8.51938 8.67939 10 8.95538 9.01233 9.08993 9.21231 9.5234 10 7.46827 7.5495 7.8265 9 7.83739 7.88937 7.95946 8.06752 8.31464 9 7.67685 9 7.82575 9 8.01526 9 8.18707 9 8.38462 9 8.56106 8.7014 9.00549 9.47851 10 8.9731 9.02829 9.10806 9.25408 10 9.49096 9.54512 9.62042 9.74486 10 8.7534 10 8.9432 10 9.16734 10 9.37655 9.51326 9.80174 10 9.86086 9.9254 10 9.59766 9.67279 9.88317 10 9.90819 9.96649 10 9.82374 10 0 0.0168457 0.108332 0.123777 0.215901 0.252549 0.345449 0.363283 0.456855 0.472943 0.567186 0.57611 0.670988 0.686138 0.781698 0.811326 0.907668 0.928026 1.0251 1.05435 1.15223 1.16803 1.26664 1.28178 1.38112 1.41692 1.51714 1.53089 1.63186 1.68459 1.78657 1.78799 1.89066 1.9137 2.01721 2.03606 2.1404 2.14696 2.25205 2.27074 2.37668 2.40722 2.51411 2.52746 2.63519 2.64536 2.75392 2.77496 2.88445 2.92373 3.03428 3.07546 3.1871 3.23105 3.34384 3.37459 3.48843 3.53007 3.64507 3.65291 3.76884 3.78063 3.89753 3.92813 4.04616 4.06773 4.18683 4.19513 4.31522 4.34451 4.46578 4.48492 4.60731 4.649 4.7727 4.77816 4.9029 4.94917 5.07531 5.0946 5.22194 5.2561 5.38479 5.40018 5.53008 5.54221 5.67332 5.68675 5.81911 5.84116 5.97485 5.98992 6.12491 6.16 6.2965 6.30224 6.44001 6.45684 6.596 6.6143 6.7549 6.75723 6.89796 7.04119 7.06085 7.20561 7.21955 7.36581 7.37753 7.52531 7.56204 7.71161 7.74919 7.90059 7.93637 8.08963 8.14747 8.30286 8.34262 8.5 8.5162 8.67537 8.70014 8.86123 8.90902 9.07232 9.09586 9.26116 9.29467 9.46213 9.46401 9.63333 9.65626 9.82772 9.85623 10 2.81388 4 2.94218 3.03529 3.4324 5 3.34873 3.4039 3.4808 3.60859 4.08787 5 3.09693 3.1655 4 3.23021 3.33816 3.61936 4 4.072 6 3.63778 3.68725 3.75477 3.86168 4.13904 5 4.1351 4.19991 4.29757 4.50199 5 5.61959 5.67676 5.75565 5.88373 6.27236 7 3.36239 3.44025 3.69088 4 4.1094 5 3.69018 3.76402 3.86791 4.04463 5 4.12108 4.17408 4.24685 4.36356 4.68985 5 5.10807 5.16116 5.23464 5.35479 5.73968 6 3.48692 5 3.61992 5 3.7715 5 3.91303 3.99877 4.30008 4.66411 5.14837 6 6.19289 8 4.26612 4.32441 4.40499 4.53634 4.9466 6 4.64705 4.69942 4.7732 4.89921 5.94999 6 5.14602 5.20348 5.28431 5.42179 6 5.92352 5.98014 6.06114 6.20522 7 8.58318 8.64054 8.7208 8.85551 9.4343 10 4.06649 5 4.20482 4.34277 4.74605 6 4.75551 4.80925 4.88362 5.00518 5.39335 6 4.34346 5 4.50847 6 4.64788 4.78389 5.12797 5.64972 7 5.13185 5.18071 5.24962 5.36764 6 5.74191 5.80008 5.88676 6.0612 7 4.83625 4.96693 5.18303 5.43568 5.8275 6 6.4846 8 5.19844 5.25788 5.34005 5.47394 5.89153 7 5.48154 5.5507 5.64859 5.81787 7 5.84325 5.89437 5.96612 6.08746 6.6924 7 6.52376 6.57639 6.65117 6.78169 8 6.91557 6.96866 7.04432 7.17746 8 4.96321 5.0634 5.32353 5.63333 6.05533 6.89136 9 5.28842 5.34305 5.42003 5.55151 6 5.61816 5.67389 5.75427 5.90045 7 6.04539 6.10943 6.19943 6.35221 7 6.73472 6.79442 6.87771 7.01644 7.55134 8 5.11782 5.20895 5.58006 7 5.54287 5.60583 5.69417 5.84347 6.57719 7 5.26861 6 5.4055 6 5.55858 7 5.7277 5.81734 6.07192 6.4162 6.8851 7 7.63729 10 6.07742 6.14583 6.24762 6.45145 7 6.40727 6.46962 6.55789 6.71058 8 6.89745 6.95543 7.03716 7.17694 8 7.71903 7.78536 7.87936 8.04233 9 7.97175 8.03509 8.12754 8.30168 9 5.877 7 6.02366 6.13763 6.45687 6.96617 8 6.42037 6.48306 6.57175 6.72488 8 6.95907 7.02019 7.10361 7.23563 7.57765 8 6.1852 6.34165 6.6138 7.03662 7.48845 8.16871 9 9.40524 10 6.61893 6.67834 6.75803 6.87951 7.14497 8 6.94636 7.00791 7.09237 7.22769 7.60342 8 7.48097 7.5383 7.6204 7.76683 9 8.10262 8.157 8.23669 8.38857 9 9.21703 9.27251 9.35035 9.48188 10 6.37104 6.50422 7 6.56105 6.75902 8 6.75639 8 6.93704 7.05232 7.39311 7.79915 8 8.52924 10 7.33897 7.39808 7.47897 7.60779 7.95315 9 7.81662 7.88054 7.97186 8.13357 9 8.50887 8.56654 8.64733 8.78335 9.39994 10 8.95351 9.01534 9.10475 9.26855 10 7.13321 7.23355 7.49847 7.9649 9 7.46726 7.52274 7.60137 7.73773 9 7.90236 7.96504 8.0509 8.18787 8.55867 9 7.28858 7.3633 7.66123 9 7.78426 7.84433 7.92792 8.06629 8.56332 9 7.45048 7.58294 9 7.63788 7.74953 8.00272 8.44235 10 8.03691 8.09253 8.17066 8.30308 9 8.48286 8.53315 8.60238 8.7142 9.04088 10 7.8157 7.90866 8.15544 8.52304 9 9.14009 10 8.15539 8.21034 8.28957 8.4335 9 8.50012 8.56622 8.66125 8.83251 10 9.1211 9.17533 9.2509 9.37651 9.84783 10 7.97837 9 8.16957 9 8.34978 9 8.56096 8.66582 8.92956 9 9.42383 10 8.90018 8.96281 9.05132 9.20376 10 9.32717 9.3885 9.47527 9.62513 10 9.46507 9.52734 9.61505 9.76475 10 8.72764 8.8237 9 9.20293 10 9.11071 9.16475 9.23731 9.34813 9.59216 10 9.50625 9.56403 9.6465 9.79221 10 8.94897 9.09504 9.28153 9.53068 9.87769 10 9.32216 9.38409 9.47045 9.61418 10 9.55506 9.62008 9.71178 9.86881 10 9.88393 9.94181 10 9.13777 10 9.34806 9.4597 9.71282 10 9.68816 9.749 9.83371 9.97416 10 9.53623 10 9.72225 9.8073 10 9.91212 10 0 0.020106 0.116251 0.146482 0.243356 0.263491 0.361047 0.385773 0.484046 0.491883 0.590782 0.613825 0.713449 0.753564 0.854025 0.899107 1 1.01192 1.11395 1.12997 1.23272 1.2425 1.34595 1.37681 1.4811 1.49638 1.60141 1.62834 1.7342 1.76468 1.87141 1.88828 1.99581 2.03258 2.14103 2.17396 2.28334 2.33354 2.44397 2.45692 2.56817 2.5873 2.69942 2.76727 2.88061 2.88694 3 3.01302 3.12804 3.14226 3.25817 3.27416 3.39099 3.4363 3.55428 3.5873 3.70635 3.7356 3.8557 3.88965 4.01087 4.0333 4.15557 4.1568 4.27998 4.29562 4.41982 4.44815 4.57349 4.60093 4.72743 4.75272 4.88038 4.92048 5.04942 5.07651 5.20666 5.22208 5.35338 5.38975 5.52237 5.54526 5.67912 5.7184 5.85366 5.87355 6.01008 6.05232 6.19032 6.23763 6.37717 6.3837 6.52447 6.54304 6.68516 6.71562 6.85921 6.88725 7.03233 7.089 7.21673 7.3647 7.38627 7.53576 7.59028 7.74161 7.76262 7.91553 7.93466 8.08915 8.12391 8.28016 8.3207 8.47881 8.55321 8.71353 8.72592 8.88791 8.89708 9.06075 9.12896 9.29492 9.33087 9.49885 9.51694 9.68681 9.69688 9.8686 9.92025 10 3.34889 3.42566 3.66468 3.9645 4.4234 5 5.16984 7 3.63145 3.68206 3.75815 3.91604 5 3.93222 3.98862 4.06956 4.21475 5 4.34173 4.39186 4.4623 4.58182 5 5.09772 5.15118 5.22569 5.34959 5.81689 6 6.92333 6.97028 7.0358 7.14511 7.57493 8 3.50318 3.62901 3.89115 4.23339 4.6818 5 5.5379 8 3.93534 3.99654 4.08657 4.26016 5 4.28117 4.3316 4.40089 4.51224 4.82727 5 4.77651 4.8316 4.91104 5.05543 6 5.55926 5.62103 5.70886 5.86256 7 6.31415 6.36931 6.446 6.57276 7.02084 8 3.64627 3.71616 3.94161 5 4.02755 4.09197 4.18074 4.32433 4.74871 5 3.79604 3.90589 5 3.9262 5 4.07602 4.14399 4.35866 4.62663 5.00997 5.68145 7 4.33805 4.40252 4.49275 4.64427 5.30008 6 4.61098 4.66573 4.74231 4.87075 5.41556 6 4.98211 5.03849 5.12048 5.27315 6 5.62052 5.68303 5.77131 5.92301 7 4.24801 4.35255 4.59139 4.83954 5.16717 5.59457 6.21309 7 7.33175 10 4.56496 4.6194 4.69415 4.81405 5.14947 6 4.84434 4.90355 4.99257 5.17743 6 5.14371 5.19365 5.26235 5.37305 5.69192 6 5.55744 5.62395 5.71813 5.88106 7 6.14239 6.19163 6.25971 6.37076 6.71936 7 7.15214 7.20836 7.28781 7.42458 8 9.37701 9.4391 9.52473 9.66349 10 4.4275 6 4.56688 6 4.71296 6 4.85245 4.91972 5 5.1792 6 5.23513 5.28501 5.35279 5.45911 5.72193 6 5.4318 5.49293 5.57936 5.7283 7 5.01922 6 5.16797 6 5.33243 6 5.50269 6 5.65733 7 5.83824 7 6.01588 7 6.21685 6.32041 7 6.37258 6.50184 6.74366 7.00917 7.33501 7.74019 8.21638 8.97662 9 10 6.74679 6.80808 6.89617 7.05478 8 7.02729 7.08344 7.16257 7.29785 8 7.34305 7.40034 7.48454 7.64641 8 7.74435 7.8053 7.89306 8.05197 9 8.27146 8.33122 8.41458 8.55338 9.08649 10 8.94881 9.00593 9.08561 9.21838 9.73193 10 6.53746 6.66206 6.93633 7.31833 8 8.05208 10 6.96512 7.02474 7.10876 7.25236 8 7.35422 7.41528 7.50599 7.6867 9 8.00194 8.05556 8.1298 8.25128 8.64297 9 6.76563 6.86098 8 6.9177 7.0322 7.30846 7.63518 8.08287 8.71953 9 9.83802 10 7.33065 7.38242 7.4544 7.57329 7.99097 9 7.67048 7.71775 7.78174 7.88119 8.11682 9 8.09277 8.15176 8.23518 8.37901 9 8.72305 8.78608 8.87894 9.059 10 9.8049 9.86216 9.94321 10 7.07825 8 7.24317 7.31783 7.50553 7.75641 8.05663 8.39626 8.92088 9 9.77209 10 7.54628 7.59996 7.67451 7.79734 8.21867 9 7.77233 7.82955 7.91408 8.07941 9 8.08603 8.13937 8.21527 8.34831 9 8.48455 8.53787 8.61077 8.72657 9.03268 10 8.97989 9.04066 9.12656 9.2745 10 9.91675 9.9732 10 7.41184 8 7.61971 7.74448 8.05038 8.52787 10 8.0899 8.14723 8.22923 8.37502 9 8.64465 8.70309 8.78576 8.92853 10 7.8138 8.01039 9 8.0049 9 8.20394 9 8.39003 9 8.5504 9 8.73108 10 8.93013 9.04568 9.33084 9.75188 10 9.29327 9.34776 9.4233 9.54731 9.95782 10 9.6916 9.74481 9.82335 9.9766 10 9.13007 9.27904 10 9.32927 10 9.55009 9.61307 9.80922 10 9.87527 9.94121 10 9.7561 9.94705 10 9.94886 10 0 0.0179072 0.111759 0.117955 0.212358 0.23675 0.331813 0.345872 0.441544 0.459169 0.555478 0.587749 0.684786 0.71538 0.813146 0.827227 0.925634 0.933269 1.03229 1.05391 1.15363 1.1731 1.27353 1.27572 1.37675 1.41483 1.51668 1.53088 1.63343 1.66929 1.77268 1.78533 1.88942 1.90501 2.00983 2.04434 2.15002 2.18969 2.29628 2.32667 2.43412 2.47594 2.58433 2.6206 2.72991 2.76193 2.87214 2.88917 3 3.03169 3.14366 3.15815 3.27096 3.30263 3.41639 3.4404 3.55509 3.60714 3.72295 3.74686 3.86363 3.87144 3.98906 4.01925 4.13789 4.16159 4.28123 4.2937 4.41427 4.43584 4.55742 4.60346 4.72624 4.75563 4.87951 4.91679 5.04185 5.07824 5.20448 5.25573 5.38329 5.39801 5.52665 5.53472 5.66439 5.69187 5.82274 5.84963 5.98172 6.00531 6.13861 6.18179 6.31647 6.38507 6.52136 6.52909 6.66654 6.69036 6.82912 6.8607 7 7.01433 7.15575 7.21839 7.36152 7.41617 7.56097 7.59289 7.7392 7.75461 7.90231 7.9428 8.09214 8.11614 8.26701 8.26702 8.41922 8.48625 8.64043 8.66295 8.81873 8.8415 8.99893 9.02164 9.18074 9.20725 9.36809 9.38774 9.55029 9.57282 9.73714 9.78354 9.94991 9.98116 10 3.99068 5 4.11696 4.23476 4.52266 4.87411 5.41355 6 6.27116 8 4.49701 4.55647 4.64016 4.78272 5.71082 6 4.8643 4.91893 4.99761 5.14008 6 5.353 5.41279 5.49598 5.63366 6.12725 7 6.26471 6.33486 6.43375 6.60297 8 7.9995 8.06125 8.14788 8.29431 9 4.26714 4.47036 5 4.40535 4.48387 4.77299 5.0839 5.59753 7 4.7339 4.79856 4.89197 5.06271 6 5.15494 5.21178 5.2906 5.42007 5.85104 6 5.72307 5.78771 5.87761 6.02634 6.55686 7 4.54909 4.68968 4.92197 5.18206 5.48344 5.90095 6.48516 7 7.43775 10 4.92023 4.97402 5.05102 5.18821 6 5.19701 5.25257 5.33212 5.47389 6 5.51845 5.56882 5.63923 5.75717 6.24732 7 5.91098 5.9605 6.0336 6.17621 7 6.5067 6.5598 6.6325 6.74837 7.06047 8 7.52848 7.5827 7.65698 7.77557 8.09801 9 8.92518 8.98897 9.07931 9.2357 10 4.71253 4.83316 5.08667 5.44019 6 6.08047 8 5.15971 5.21824 5.30256 5.45547 6 5.5339 5.58268 5.65193 5.77259 7 6.16806 6.22706 6.3097 6.44879 7 8.50891 8.56213 8.63803 8.77184 10 4.87509 6 5.01783 5.10237 5.34533 5.65103 5.95435 6.38209 7.00505 8 8.11106 10 5.31919 5.38021 5.46536 5.60737 6.16281 7 5.60374 5.66001 5.74519 5.92634 7 5.97456 6.02875 6.10213 6.2163 6.48811 7 6.36106 6.41631 6.49639 6.64404 8 6.95146 7.00812 7.09003 7.24006 8 7.98144 8.03762 8.11599 8.24658 8.75213 9 5.1534 5.2555 5.47041 5.70942 6.08166 6.53711 7 7.20412 9 5.47311 5.5411 5.63817 5.80983 7 5.73986 5.79492 5.87294 6.00821 7 6.05358 6.10566 6.18213 6.32873 7 6.59653 6.65072 6.72706 6.85745 7.95205 8 7.43841 7.49259 7.56685 7.68546 8.0089 9 9.01391 9.06998 9.14827 9.27894 9.79601 10 5.30791 5.41909 5.7187 6.12761 6.75766 9 5.70734 5.78162 5.88294 6.04307 6.45478 7 6.13489 6.20242 6.2971 6.45691 7.21697 8 6.8579 6.91883 7.00549 7.15724 8 5.46088 5.58553 5.82166 6.0989 6.43469 6.85206 7.394 8 8.27456 10 5.84348 5.91048 6.00278 6.15199 6.59116 7 6.12953 6.19026 6.27709 6.43134 7 6.47954 6.54465 6.6364 6.79322 8 6.93114 6.98086 7.05012 7.16512 7.59201 8 7.55616 7.61178 7.68863 7.81375 8.20122 9 8.56779 8.62034 8.69658 8.83767 10 5.59281 5.67525 5.90727 6 6.35594 8 5.93673 5.99571 6.07699 6.20857 6.59944 7 6.33254 6.40561 6.50601 6.66735 7.12366 8 6.52973 6.59542 6.68958 6.85797 8 5.77202 5.92341 7 5.92185 5.99681 6.26739 6.57285 6.91718 7.33486 7.96879 8 8.98348 10 6.25973 6.31647 6.39612 6.53082 7 6.58432 6.63579 6.70791 6.82935 7.38201 8 6.96594 7.02212 7.10103 7.23473 7.93744 8 7.42208 7.48901 7.58076 7.72745 8.12955 9 8.02941 8.08547 8.16002 8.2716 8.49953 9 9.16107 9.22338 9.3141 9.4837 10 9.22792 9.28158 9.35459 9.4694 9.7569 10 6.10095 7 6.25142 6.38291 6.65296 7.01722 7.47672 8 8.36657 10 6.60006 6.65458 6.73641 6.90508 8 6.93629 6.99119 7.06956 7.208 8 7.4294 7.48752 7.56911 7.70719 8.40791 9 8.16879 8.22356 8.3006 8.43167 9 9.46092 9.5157 9.59248 9.72183 10 6.40693 7 6.58838 6.66908 6.92334 7.22572 7.61272 8.13708 9 9.0746 10 6.95882 7.01447 7.09205 7.22115 7.71226 8 7.27741 7.33803 7.4246 7.57781 9 7.67837 7.74664 7.84512 8.02431 9 8.24263 8.30598 8.39461 8.54332 9.1775 10 9.17308 9.23263 9.31854 9.475 10 6.77817 6.90967 7 7.28213 9 7.28895 7.3429 7.41907 7.54986 8 7.48925 7.54247 7.61699 7.74224 8.29365 9 6.95747 8 7.15336 8 7.34371 7.4486 7.72411 8 8.18809 10 7.71382 7.77411 7.86054 8.01519 9 8.18201 8.23633 8.31055 8.4283 8.73743 9 8.93162 8.99014 9.07221 9.21072 9.87048 10 7.53019 9 7.6985 7.82438 8.0771 8.508 9 9.17508 10 8.04926 8.10666 8.18544 8.31176 8.66419 9 8.3893 8.44508 8.52833 8.69663 10 9.08642 9.13903 9.21147 9.32847 9.67049 10 7.88749 8.00675 8.23953 8.55944 8.98221 9 9.78428 10 8.21712 8.2719 8.34708 8.46751 8.8018 9 8.50976 8.56477 8.64255 8.77654 10 8.94646 9.00419 9.08555 9.22462 10 9.63375 9.68256 9.75061 9.86383 10 9.66719 9.7272 9.81485 9.98031 10 8.05563 8.15083 8.47674 8.80061 9.29198 9.85722 10 8.45934 8.52221 8.6077 8.7419 9.07512 10 8.8629 8.91712 8.99557 9.13952 10 9.28638 9.33484 9.40306 9.51938 10 9.99232 10 8.24822 9 8.43238 9 8.65593 10 8.84384 10 9.01184 9.14671 9.36321 9.6229 9.90601 10 9.42588 9.4823 9.56165 9.69652 10 9.682 9.73701 9.81621 9.95963 10 9.99754 10 9.21171 9.34891 9.6224 10 9.54288 9.59861 9.67841 9.82074 10 9.89823 9.9606 10 9.40476 9.50085 9.72275 10 9.71073 9.7782 9.87132 10 9.58447 9.68786 9.91357 10 9.94589 10 9.77837 10 0 0.0144719 0.0943697 0.11856 0.199046 0.223401 0.304483 0.329733 0.411425 0.436013 0.51832 0.547301 0.630256 0.645746 0.729279 0.739495 0.823581 0.834567 0.919219 0.946266 1.03159 1.04641 1.13233 1.15939 1.246 1.26541 1.35267 1.36518 1.45306 1.46817 1.55669 1.5682 1.65735 1.6882 1.7781 1.79041 1.88096 1.89774 1.98898 2.00438 2.09631 2.11416 2.2068 2.24586 2.33937 2.35593 2.45017 2.47856 2.57362 2.59065 2.68645 2.69851 2.79505 2.8099 2.9072 2.93854 3.03672 3.05361 3.1526 3.15945 3.2511 3.35148 3.38069 3.48199 3.49858 3.60072 3.61985 3.72287 3.7401 3.84399 3.86877 3.97361 3.98495 4.0881 4.19457 4.20099 4.30832 4.31936 4.42518 4.53422 4.56909 4.67924 4.71558 4.82688 4.83976 4.95203 4.95878 5.07201 5.08805 5.20231 5.23791 5.35339 5.39596 5.51273 5.54572 5.66373 5.69019 5.80941 5.84284 5.96335 6.01073 6.13268 6.15957 6.28281 6.2999 6.42437 6.44454 6.56747 6.69431 6.72094 6.84916 6.88483 7.01454 7.02319 7.15417 7.18068 7.31313 7.34617 7.48018 7.51038 7.64594 7.67741 7.81459 7.85476 7.99366 8.04305 8.18381 8.19118 8.33342 8.34054 8.48429 8.52834 8.67402 8.68655 8.83386 8.89769 9.04721 9.06665 9.21796 9.26787 9.42135 9.46995 9.62564 9.68149 9.83953 9.87524 10 3.17687 4 3.30698 3.41823 3.7648 5 3.74313 3.801 3.88472 4.03829 5 3.43827 3.58304 3.85514 4.19565 4.65109 5.2003 6 6.21973 9 3.85134 3.90393 3.9809 4.12694 5 4.18447 4.23758 4.31249 4.44077 5 4.62435 4.69181 4.78771 4.95532 6 5.27238 5.32281 5.39273 5.50751 5.88812 6 6.2209 6.278 6.3585 6.49627 7 8.90695 8.96671 9.04914 9.18279 9.5844 10 3.57168 3.65609 3.96886 4 4.50671 6 4.00792 4.06556 4.14756 4.29114 5 4.55896 4.61251 4.68765 4.8147 5.4448 6 4.62469 4.6934 4.78956 4.95106 5.65152 6 3.70528 5 3.84546 3.9424 4.19757 4.62475 6 4.21877 4.27307 4.35065 4.48809 5 4.66706 4.71881 4.79232 4.92061 6 3.96969 5 4.08821 5 4.20861 5 4.35035 5 4.47768 6 4.62162 4.73536 4.91821 5.14883 5.40259 5.70001 6.00342 6.46668 7.11716 8 8.19365 10 4.95212 5.01645 5.10505 5.24825 5.6687 6 5.16232 5.21746 5.2979 5.44916 6 5.43288 5.48743 5.56302 5.68698 6.09357 7 5.73896 5.79834 5.88138 6.02063 6.60954 7 6.11174 6.16153 6.23406 6.36986 7 6.51231 6.57015 6.65333 6.80351 8 7.18096 7.23767 7.31813 7.45803 8 8.33186 8.38521 8.45797 8.57294 8.86834 10 4.75698 6 4.88463 6 5.01665 5.09036 5.34195 5.74452 7 5.32921 5.39014 5.47562 5.62002 6.32262 7 5.7612 5.81898 5.90064 6.04124 7 5.14514 5.26468 5.51792 5.79632 6.23397 6.9555 9 5.56858 5.63098 5.72294 5.90138 7 5.91035 5.96194 6.03763 6.18241 7 6.3237 6.38812 6.48279 6.66489 8 7.11948 7.18632 7.28308 7.46104 8 5.29961 6 5.43149 5.56946 5.98289 7 5.9965 6.06105 6.15432 6.32491 7 5.57027 5.68081 5.94214 6 6.34818 8 5.98703 6.03782 6.11139 6.24696 7 6.46669 6.53502 6.63144 6.79677 8 6.60093 6.65536 6.73452 6.88207 8 5.70846 7 5.85104 7 6.02254 7 6.16623 6.26252 6.53209 7 7.0059 9 6.58857 6.66611 6.77394 6.95223 7.58406 8 7.0702 7.12847 7.2081 7.33445 7.66632 8 6.32673 7 6.4738 7 6.61568 6.70594 6.965 7.26712 7.65671 8.32611 9 9.2274 10 7.03582 7.09598 7.18038 7.32295 8 7.36408 7.41646 7.48762 7.59914 7.87375 9 7.76872 7.83274 7.92665 8.10617 9 8.3401 8.39389 8.47017 8.60263 10 9.57168 9.62015 9.68875 9.80718 10 6.76254 6.837 7 7.22507 8 7.14069 7.19993 7.28692 7.45383 8 7.50097 7.55536 7.63447 7.782 9 6.93261 7.01404 7.2195 7.4735 7.79747 8.15561 8.60653 9.3537 10 7.27428 7.32984 7.41111 7.56515 8 7.51584 7.58292 7.6781 7.84368 9 7.8222 7.87743 7.95568 8.09127 9 8.22839 8.28139 8.35434 8.47214 8.81577 9 8.70407 8.7558 8.82878 8.95388 10 9.36092 9.42054 9.50438 9.64698 10 7.08517 7.21787 8 7.22585 7.35133 8 7.34795 7.48396 7.77902 8.1338 8.62429 9 9.51323 10 7.7745 7.82622 7.89983 8.02892 9 8.15746 8.22873 8.32917 8.50075 10 8.66197 8.71729 8.79533 8.92913 10 9.50351 9.56121 9.64122 9.77267 10 7.52103 9 7.67895 7.86134 9 7.84187 9 8.00389 9 8.17779 8.26957 8.58675 10 8.58622 8.6449 8.7287 8.87701 10 8.33529 8.45409 8.67107 8.9733 9.26826 9.66365 10 8.66875 8.72153 8.79729 8.93327 10 8.92536 8.98969 9.07797 9.21948 9.61366 10 9.2968 9.35358 9.43399 9.57307 10 9.68028 9.73661 9.81887 9.97406 10 8.4755 8.54469 8.73159 8.98135 9.30145 9.72209 10 8.74345 8.80926 8.90085 9.05266 9.60461 10 8.97203 9.0332 9.11602 9.24483 9.55099 10 9.29357 9.35212 9.4326 9.56214 9.93216 10 9.74508 9.79889 9.87842 10 8.62939 10 8.79121 10 8.9363 9.02573 9.2495 9.52533 9.86992 10 9.24962 9.3046 9.38362 9.52591 10 9.51136 9.57419 9.66154 9.80585 10 9.84394 9.90404 9.99063 10 9.13426 10 9.33656 9.46474 9.77854 10 9.76794 9.82384 9.90108 10 9.50867 10 9.67419 9.78284 10 9.85456 9.92762 10 0 0.0157281 0.0984201 0.113565 0.19681 0.222468 0.306332 0.345611 0.430182 0.451011 0.531398 0.617046 0.64587 0.732188 0.753623 0.840577 0.866677 0.954304 0.980368 1.06868 1.09155 1.18052 1.21998 1.30974 1.33724 1.42772 1.45375 1.54495 1.59146 1.68353 1.69856 1.7913 1.80879 1.90222 1.91683 1.99948 2.09414 2.10136 2.19668 2.21742 2.3118 2.4085 2.41776 2.51515 2.53117 2.62932 2.64635 2.74528 2.76569 2.86542 2.8738 2.97427 2.99349 3.09478 3.10724 3.20932 3.22672 3.32963 3.35139 3.45518 3.45791 3.56245 3.57671 3.68211 3.70294 3.80925 3.83364 3.94091 3.96591 4.07415 4.0982 4.20742 4.23932 4.34959 4.37371 4.48499 4.52462 4.63706 4.66552 4.77904 4.80887 4.92351 4.95938 5.07519 5.11116 5.22818 5.2724 5.39071 5.44313 5.56283 5.58944 5.71034 5.74503 5.86722 5.8954 6.01885 6.03142 6.15602 6.16739 6.29315 6.3339 6.46109 6.49789 6.62456 6.7543 6.77252 6.90358 6.93246 7.06496 7.06915 7.20289 7.24777 7.38315 7.41046 7.54735 7.58272 7.72123 7.75125 7.89136 7.93281 8.07467 8.11202 8.25563 8.28349 8.42878 8.46686 8.61399 8.61867 8.76733 8.82421 8.97497 9.01257 9.16528 9.1846 9.33912 9.36793 9.52439 9.53134 9.68956 9.72186 9.88215 9.96051 10 3.24304 3.33321 3.5472 3.91479 5 3.54712 3.61567 3.71175 3.87362 4.61817 5 3.9124 3.97977 4.07498 4.2389 5 3.36496 3.50304 3.79267 4.1604 4.74143 5 5.74768 8 3.77952 3.83328 3.90758 4.02865 4.40602 5 4.14554 4.19759 4.26994 4.38947 4.80961 5 4.64756 4.71536 4.81309 4.9906 6 5.59395 5.64022 5.70401 5.80726 6.11389 7 6.13454 6.18516 6.25722 6.38364 7 3.5009 5 3.65491 3.78985 5 3.78699 5 3.88789 3.97783 4.25173 4.56542 4.94917 5 5.74786 8 4.23965 4.30381 4.39173 4.5322 4.91575 6 4.59784 4.664 4.75247 4.88647 5.17202 6 5.04993 5.11122 5.19838 5.35094 6 5.71122 5.76825 5.8506 6 7 5.81355 5.86231 5.92951 6.03827 6.36096 7 4.03182 5 4.16756 4.27457 4.47342 4.77318 5.09324 5.51086 6.15917 7 7.13192 10 4.55205 4.61225 4.70288 4.89189 6 4.79243 4.84246 4.91131 5.02232 5.34341 6 5.16843 5.23 5.31985 5.48905 6 5.59358 5.65793 5.75126 5.92385 7 6.20191 6.25623 6.33018 6.44657 6.73934 7 7.37194 7.42957 7.517 7.70439 8 4.31026 4.41782 4.67251 4.94957 5.28317 5.6951 6.28723 7 7.3941 10 4.65835 4.71314 4.78705 4.90103 5.16222 6 4.96062 5.01478 5.08906 5.20797 5.53624 6 5.30145 5.3649 5.45207 5.59206 5.98675 7 5.73382 5.79989 5.89193 6.04481 6.61399 7 6.3154 6.37551 6.45879 6.59528 7.04145 8 7.31544 7.3738 7.46023 7.63055 8 9.29037 9.3436 9.42169 9.5711 10 4.45405 4.58956 4.82965 5.20029 5.78711 8 4.84485 4.89945 4.97573 5.10326 5.61956 6 5.18427 5.25206 5.34793 5.51329 7 5.82384 5.88717 5.97974 6.15488 7 4.59495 4.7006 4.92872 5.24 5.64311 6 6.25275 8 4.93634 4.9886 5.06524 5.21166 6 5.23532 5.2876 5.36054 5.48208 5.95316 6 5.68777 5.75862 5.85222 5.9905 6.26096 7 6.42216 6.47897 6.55776 6.68715 7.11752 8 7.49084 7.54926 7.63359 7.78725 9 4.75808 4.88658 5.17391 5.53648 6 6.19735 8 5.19679 5.25395 5.33749 5.49535 6 5.6141 5.67385 5.75937 5.91165 7 6.25583 6.31807 6.40617 6.55847 8 7.70672 7.76382 7.84616 7.99582 9 4.90735 6 5.056 6 5.23211 5.31907 5.53435 5.84399 6 6.41597 8 5.59134 5.64537 5.72005 5.84172 6.22055 7 5.9048 5.95415 6.0213 6.12688 6.39118 7 6.44854 6.50905 6.59322 6.73245 7.22855 8 6.8043 6.85478 6.925 7.04123 7.45785 8 5.36939 6 5.51097 5.61325 6 5.65005 7 5.75664 5.90109 6 6.26315 8 6.32915 6.40296 6.50993 6.70719 8 6.56454 6.6283 6.71925 6.87973 8 5.88827 5.99279 6 6.35445 8 6.42037 6.48267 6.57344 6.74353 8 6.43578 6.49579 6.58399 6.75377 8 6.03854 6.16001 6.42807 6.77616 7 7.37199 9 6.40353 6.45863 6.53798 6.68175 8 6.7806 6.83318 6.90887 7.04584 8 7.37745 7.43697 7.5212 7.66662 9 7.90657 7.96143 8.03989 8.1793 9 6.16101 6.28354 6.53076 6.78401 7.08764 7.42933 7.90691 8.54933 9.35812 10 6.50592 6.55696 6.63143 6.77166 8 6.78383 6.84016 6.91728 7.04027 7.37245 8 7.07322 7.13579 7.22382 7.37368 8 7.42766 7.4868 7.56873 7.70289 8.13826 9 7.83839 7.89279 7.97173 8.11786 9 8.43994 8.49419 8.57314 8.72052 10 9.32313 9.39068 9.48751 9.66063 10 6.29877 7 6.44656 6.56303 6.76094 7.05751 7.36863 7.84074 8.48618 9 9.57359 10 6.78622 6.84369 6.9239 7.05771 7.58334 8 7.01807 7.08304 7.17624 7.34328 8 7.37651 7.4497 7.55279 7.72871 9 7.77085 7.82468 7.89931 8.02174 8.42525 9 8.42157 8.47183 8.53866 8.63872 8.84321 10 9.4994 9.56229 9.65044 9.7991 10 6.59701 8 6.75327 8 6.89517 8 7.05264 8 7.20269 7.31305 7.59456 8.00621 8.66713 10 7.53986 7.59392 7.67093 7.8064 9 7.92129 7.9855 8.07421 8.21859 8.66485 9 8.59589 8.66085 8.75034 8.89509 9.32234 10 7.36069 8 7.52599 9 7.6676 7.77258 8.09365 8.52774 10 8.08044 8.14138 8.22522 8.36031 8.74924 9 8.66005 8.7174 8.7987 8.93974 10 7.82594 7.93082 8.12426 8.40483 8.77818 9.29132 10 8.19408 8.26124 8.35383 8.50386 8.95237 10 8.43569 8.48913 8.56304 8.68367 9.06446 10 8.80487 8.85561 8.92726 9.05037 10 9.34623 9.4009 9.4769 9.6024 10 7.99464 9 8.16984 8.24649 8.57868 10 8.58084 8.63539 8.71233 8.8441 10 8.34768 8.47993 9 8.5261 8.65605 8.87603 9.18491 9.6372 10 8.92219 8.99081 9.09621 9.33346 10 9.19383 9.24198 9.30879 9.41867 9.7889 10 9.59535 9.65234 9.73035 9.85465 10 8.71705 10 8.8995 10 9.1051 10 9.29775 10 9.49446 9.62436 10 9.70175 10 9.91162 10 0 0.0184374 0.10862 0.121643 0.212429 0.218281 0.309634 0.316918 0.408856 0.417595 0.509433 0.60252 0.620094 0.713189 0.807509 0.823527 0.918521 0.954388 1.05019 1.06665 1.16315 1.18051 1.27772 1.3188 1.41688 1.4637 1.5627 1.57551 1.67522 1.6981 1.79861 1.80726 1.90848 1.93362 2.03567 2.06551 2.16843 2.18692 2.29065 2.33491 2.43964 2.44796 2.55346 2.59044 2.69692 2.72445 2.83185 2.87674 2.9852 3.00025 3.10958 3.124 3.2342 3.26668 3.37791 3.40183 3.51403 3.53315 3.6463 3.65612 3.77018 3.78895 3.90399 3.92438 4.04043 4.06341 4.17677 4.29473 4.32105 4.44011 4.44199 4.56199 4.56245 4.68339 4.71177 4.83387 4.83635 4.95945 4.97144 5.09561 5.09919 5.22439 5.22682 5.35306 5.39315 5.52075 5.54059 5.66941 5.67235 5.80228 5.83907 5.9704 6.00349 6.13623 6.17496 6.30918 6.36492 6.5008 6.52018 6.65743 6.6923 6.83108 6.85803 6.99831 7.04157 7.18352 7.22654 7.3702 7.40314 7.54845 7.56731 7.71417 7.77365 7.92248 7.9246 8.07489 8.10799 8.26007 8.28836 8.44223 8.48349 8.63931 8.66971 8.82742 8.85056 9.01013 9.04681 9.20841 9.23746 9.40107 9.43487 9.60058 9.61118 9.77879 9.81803 9.9879 10 2.86981 4 2.99388 3.13641 3.3881 3.63565 3.94643 4.29043 4.70844 5.32807 6.14602 7 7.74201 10 3.3603 3.42194 3.50836 3.6541 4.33727 5 3.64336 3.69493 3.76861 3.8992 5 3.92639 3.98297 4.06319 4.20238 5 4.28937 4.34164 4.41456 4.53608 5 4.70331 4.77472 4.87478 5.04328 5.81116 6 5.2284 5.29283 5.38404 5.54172 7 6.07048 6.1239 6.1975 6.31658 6.66861 7 7.38791 7.44181 7.51881 7.65525 9 9.41486 9.46243 9.52969 9.64559 10 3.11021 4 3.22911 4 3.35062 3.46719 3.68181 3.92214 4.20589 4.5184 4.86268 5.37927 6.013 6.88974 7 8.50379 10 3.65476 3.71711 3.80506 3.95564 5 3.89102 3.9495 4.03096 4.16617 4.66664 5 4.15875 4.21202 4.28753 4.41855 5 4.47982 4.53611 4.61689 4.76174 6 4.84085 4.89426 4.96951 5.09801 6 5.24954 5.31318 5.40221 5.5516 6.1901 7 5.89097 5.94651 6.02271 6.14483 6.4843 7 6.74502 6.81606 6.91143 7.05705 7.37721 8 8.14954 8.20067 8.2718 8.38943 8.80782 9 8.35745 8.41431 8.49543 8.63855 10 3.4616 3.55735 3.77714 4.02691 4.30907 4.63153 4.98275 5.48761 6.20903 7 7.30477 10 3.75617 3.81122 3.889 4.02283 5 4.00532 4.07037 4.16939 4.38459 5 4.29417 4.34257 4.41184 4.53511 5 4.6294 4.68299 4.75811 4.88482 5.47962 6 5.02712 5.09044 5.17807 5.32135 5.7797 6 5.48373 5.54061 5.61842 5.74225 6.07291 7 6.20297 6.26452 6.35114 6.49868 7 7.47459 7.53025 7.61381 7.78621 9 3.59552 5 3.70833 3.82179 4.1146 4.58534 6 4.05425 4.11343 4.19502 4.32717 4.72098 5 4.53394 4.60997 4.71722 4.90096 6 3.84222 5 4.00129 5 4.13798 4.258 4.52264 4.91001 5 5.5467 7 4.47019 4.54199 4.64296 4.8146 5.82055 6 4.82742 4.88353 4.96637 5.12803 6 5.45705 5.5111 5.58577 5.70732 6.08328 7 5.63706 5.68891 5.76364 5.89939 7 4.27684 5 4.44578 5 4.62316 6 4.76029 4.88308 5 5.24279 6 5.25836 5.30919 5.37