<?xml version="1.0"?>
<VTKFile type="UnstructuredGrid" version="0.1" byte_order="LittleEndian">
  <UnstructuredGrid>
    <Piece NumberOfCells="4050" NumberOfPoints="5776">
      <CellData Scalars="S_liq">
        <DataArray type="Float32" Name="S_liq" NumberOfComponents="1" format="ascii">
          0.611496 0.611497 0.611497 0.611497 0.611497 0.611497 0.611497 0.611497 0.611497 0.611497 0.611497 0.611497
          0.611497 0.611497 0.611497 0.611497 0.611497 0.611497 0.611496 0.611497 0.611497 0.611497 0.611497 0.611497
          0.611497 0.611497 0.611497 0.611497 0.611497 0.611497 0.611497 0.611497 0.611497 0.611497 0.611497 0.611497
          0.611497 0.611497 0.611497 0.611497 0.611497 0.611497 0.611497 0.611497 0.611497 0.611497 0.611497 0.611497
          0.611497 0.611497 0.611497 0.611497 0.611497 0.611497 0.610519 0.610521 0.610522 0.610522 0.610522 0.610522
          0.610522 0.610522 0.610522 0.610522 0.610522 0.610522 0.610522 0.610522 0.610522 0.610522 0.610522 0.610522
          0.610521 0.610521 0.610522 0.610522 0.610522 0.610522 0.610522 0.610522 0.610522 0.610522 0.610522 0.610522
          0.610522 0.610522 0.610522 0.610522 0.610522 0.610522 0.610522 0.610522 0.610522 0.610522 0.610522 0.610522
          0.610522 0.610522 0.610522 0.610522 0.610522 0.610522 0.610522 0.610522 0.610522 0.610522 0.610522 0.610522
          0.60942 0.60942 0.609421 0.609421 0.609421 0.609421 0.609421 0.609421 0.609421 0.609421 0.609421 0.609421
          0.609421 0.609421 0.609421 0.609421 0.609421 0.609421 0.609421 0.609416 0.60942 0.609421 0.609421 0.609421
          0.609421 0.609421 0.609421 0.609421 0.609421 0.609421 0.609421 0.609421 0.609421 0.609421 0.609421 0.609421
          0.609421 0.609421 0.609421 0.609421 0.609421 0.609421 0.609421 0.609421 0.609421 0.609421 0.609421 0.609421
          0.609421 0.609421 0.609421 0.609421 0.609421 0.609421 0.608323 0.608323 0.608323 0.608323 0.608323 0.608323
          0.608323 0.608323 0.608323 0.608323 0.608323 0.608323 0.608323 0.608323 0.608323 0.608323 0.608323 0.608323
          0.608323 0.60832 0.60832 0.608323 0.608323 0.608323 0.608323 0.608323 0.608323 0.608323 0.608323 0.608323
          0.608323 0.608323 0.608323 0.608323 0.608323 0.608323 0.608323 0.608323 0.608323 0.608323 0.608323 0.608323
          0.608323 0.608323 0.608323 0.608323 0.608323 0.608323 0.608323 0.608323 0.608323 0.608323 0.608323 0.608323
          0.60724 0.60724 0.60724 0.607233 0.607238 0.60724 0.60724 0.60724 0.60724 0.60724 0.60724 0.60724
          0.60724 0.60724 0.60724 0.60724 0.60724 0.60724 0.60724 0.60724 0.607236 0.607237 0.60724 0.60724
          0.60724 0.60724 0.60724 0.60724 0.60724 0.60724 0.60724 0.60724 0.60724 0.60724 0.60724 0.60724
          0.60724 0.60724 0.60724 0.607238 0.60724 0.60724 0.60724 0.60724 0.60724 0.60724 0.60724 0.60724
          0.60724 0.60724 0.60724 0.60724 0.60724 0.60724 0.606173 0.606173 0.606172 0.606167 0.60617 0.606168
          0.606172 0.606171 0.606172 0.606173 0.606173 0.606173 0.606173 0.606173 0.606173 0.606173 0.606173 0.606173
          0.606173 0.606173 0.606172 0.606167 0.606168 0.606172 0.606172 0.606169 0.606172 0.606173 0.606173 0.606173
          0.606173 0.606173 0.606173 0.606173 0.606173 0.606173 0.606173 0.606173 0.606172 0.606172 0.606169 0.60617
          0.606172 0.606172 0.606173 0.606173 0.606173 0.606173 0.606173 0.606173 0.606173 0.606172 0.606173 0.606173
          0.60512 0.605119 0.605116 0.605116 0.605119 0.605117 0.605119 0.605119 0.605113 0.605119 0.605119 0.605119
          0.605119 0.60512 0.605119 0.605119 0.605119 0.60512 0.60512 0.605119 0.605119 0.605118 0.605114 0.605114
          0.605119 0.605119 0.605119 0.605119 0.605118 0.605119 0.605119 0.60512 0.605119 0.605119 0.605119 0.60512
          0.60512 0.605119 0.605119 0.605119 0.605119 0.605119 0.605119 0.605119 0.605119 0.605119 0.605119 0.605119
          0.605118 0.605119 0.605119 0.605114 0.605118 0.605119 0.604081 0.604081 0.604079 0.604081 0.60408 0.60408
          0.604081 0.60408 0.604078 0.60408 0.604078 0.60408 0.60408 0.604081 0.60408 0.604081 0.604081 0.604081
          0.604081 0.60408 0.604076 0.60408 0.604075 0.604075 0.60408 0.60408 0.60408 0.604081 0.60408 0.604077
          0.60408 0.604081 0.604081 0.604081 0.604081 0.604081 0.604081 0.604079 0.60408 0.604081 0.60408 0.60408
          0.604077 0.604077 0.60408 0.604078 0.60408 0.604076 0.604076 0.60408 0.604077 0.604079 0.604081 0.604081
          0.603056 0.603056 0.603052 0.603056 0.603056 0.603056 0.603056 0.603056 0.603056 0.603056 0.603054 0.603052
          0.60305 0.603056 0.603053 0.603056 0.603056 0.603056 0.603056 0.603054 0.603055 0.603056 0.603055 0.60305
          0.603056 0.603055 0.603051 0.603056 0.603056 0.603056 0.603055 0.603056 0.603056 0.603056 0.603056 0.603056
          0.603056 0.603052 0.603055 0.603056 0.603056 0.603052 0.603055 0.603055 0.603056 0.603051 0.603056 0.603054
          0.60305 0.603056 0.603053 0.603056 0.603056 0.603056 0.602045 0.602045 0.60204 0.602044 0.602045 0.602045
          0.602045 0.602045 0.602045 0.602045 0.602045 0.60204 0.602043 0.602045 0.60204 0.602045 0.602045 0.602045
          0.602045 0.602045 0.602045 0.602045 0.602045 0.60204 0.602044 0.602045 0.602041 0.602043 0.602045 0.602044
          0.60204 0.602045 0.602044 0.602045 0.602045 0.602045 0.602045 0.60204 0.602044 0.602045 0.602045 0.602044
          0.60204 0.602045 0.602045 0.602037 0.602044 0.602039 0.602039 0.602045 0.602045 0.602045 0.602045 0.602045
          0.601048 0.601047 0.60104 0.601036 0.601047 0.601047 0.601047 0.601047 0.601044 0.601046 0.601044 0.601039
          0.601046 0.601047 0.601047 0.601048 0.601048 0.601048 0.601048 0.601045 0.601046 0.601043 0.601047 0.601045
          0.601043 0.601047 0.601047 0.601042 0.601046 0.601041 0.601047 0.601047 0.601044 0.601048 0.601048 0.601047
          0.601047 0.601044 0.601043 0.601043 0.60104 0.601047 0.601041 0.601047 0.601046 0.601041 0.601039 0.601042
          0.601046 0.601047 0.601043 0.601048 0.601048 0.601046 0.600063 0.600063 0.600057 0.600059 0.600062 0.600057
          0.600062 0.600062 0.600057 0.600055 0.60006 0.600057 0.600062 0.600057 0.600058 0.600063 0.600063 0.600063
          0.600063 0.600062 0.600058 0.600059 0.600062 0.600058 0.600059 0.600058 0.600062 0.60006 0.600062 0.600056
          0.600063 0.600063 0.600063 0.600063 0.600063 0.600059 0.600063 0.600062 0.600053 0.60006 0.600062 0.600062
          0.60006 0.600061 0.600062 0.600061 0.600058 0.600062 0.600063 0.600063 0.600061 0.600063 0.600063 0.600061
          0.599091 0.599091 0.599086 0.599085 0.59909 0.59909 0.599089 0.599087 0.599088 0.599084 0.599088 0.599086
          0.599091 0.599086 0.599085 0.599091 0.599087 0.599087 0.599091 0.599091 0.599091 0.59909 0.599086 0.599085
          0.599089 0.599085 0.59909 0.59909 0.599088 0.59909 0.599091 0.599091 0.599091 0.599091 0.59909 0.599088
          0.599091 0.599091 0.599089 0.599091 0.599091 0.59909 0.599079 0.599086 0.59909 0.599085 0.599084 0.599085
          0.599091 0.599091 0.599091 0.599091 0.599091 0.59909 0.598132 0.598132 0.598128 0.598128 0.598128 0.598131
          0.598125 0.598126 0.598127 0.598119 0.598123 0.598121 0.59813 0.598129 0.598128 0.598131 0.598131 0.598127
          0.598132 0.598132 0.598131 0.598126 0.598129 0.598128 0.598131 0.598129 0.598126 0.598117 0.598123 0.598119
          0.598125 0.598125 0.598131 0.598129 0.598127 0.598127 0.598131 0.598132 0.598131 0.59813 0.598131 0.598131
          0.598126 0.598125 0.598128 0.598122 0.598122 0.598125 0.598129 0.59813 0.598131 0.598129 0.598131 0.598121
          0.597184 0.597184 0.597184 0.597184 0.597184 0.597184 0.59717 0.59718 0.597177 0.597177 0.597176 0.597175
          0.59717 0.597178 0.597183 0.597183 0.597174 0.597178 0.597184 0.597184 0.597183 0.597177 0.597179 0.597183
          0.597179 0.59718 0.597176 0.597163 0.597181 0.597181 0.597181 0.59718 0.597178 0.59718 0.59718 0.597174
          0.597184 0.597184 0.597184 0.597179 0.597184 0.597184 0.59718 0.597178 0.597181 0.597173 0.597164 0.597179
          0.597176 0.59718 0.597183 0.597174 0.597179 0.597181 0.596242 0.596249 0.596249 0.596249 0.596249 0.596246
          0.596242 0.596244 0.59624 0.596238 0.596244 0.596246 0.596245 0.596248 0.596247 0.596249 0.596245 0.596248
          0.596248 0.596248 0.596242 0.596243 0.596247 0.596237 0.596241 0.596242 0.59624 0.596225 0.596242 0.596238
          0.596245 0.596245 0.596244 0.596246 0.596245 0.596248 0.596249 0.596249 0.596249 0.596248 0.596249 0.596248
          0.596244 0.596247 0.596238 0.596205 0.596234 0.596232 0.596244 0.596246 0.596248 0.596248 0.596248 0.596249
          0.595324 0.595324 0.595325 0.595325 0.595324 0.595318 0.595316 0.595323 0.595321 0.595314 0.595315 0.595318
          0.595324 0.595324 0.59532 0.595324 0.595325 0.595325 0.595323 0.595318 0.595324 0.59532 0.595324 0.595323
          0.595313 0.595317 0.595321 0.595307 0.595317 0.595318 0.595322 0.595324 0.595324 0.595319 0.595324 0.595325
          0.595324 0.59532 0.595325 0.595325 0.595324 0.595324 0.595324 0.595324 0.595308 0.595293 0.595316 0.595318
          0.595318 0.595317 0.595322 0.595323 0.595325 0.595325 0.594405 0.594411 0.594412 0.59441 0.594406 0.594411
          0.594401 0.594406 0.594402 0.594405 0.594409 0.594402 0.59441 0.59441 0.594405 0.59441 0.594408 0.594407
          0.594409 0.594411 0.594412 0.59441 0.594409 0.594412 0.594406 0.594407 0.594399 0.59439 0.594407 0.594401
          0.594407 0.594405 0.594401 0.594407 0.594412 0.594412 0.594403 0.594404 0.594412 0.594412 0.594405 0.594412
          0.594411 0.594411 0.594398 0.594399 0.594383 0.594405 0.594402 0.594392 0.594404 0.594408 0.594412 0.594412
          0.593509 0.593506 0.593504 0.593504 0.593506 0.593505 0.5935 0.593495 0.593504 0.593492 0.593506 0.593502
          0.593495 0.593503 0.593509 0.593506 0.593509 0.593502 0.59351 0.593506 0.593509 0.59351 0.593507 0.593506
          0.593507 0.593499 0.593502 0.593503 0.593503 0.593497 0.593503 0.593503 0.593509 0.593506 0.59351 0.59351
          0.593505 0.593509 0.59351 0.59351 0.593507 0.593509 0.593497 0.593508 0.593497 0.593499 0.593467 0.593499
          0.593506 0.593497 0.593504 0.593505 0.59351 0.593508 0.592619 0.592619 0.592616 0.592612 0.592617 0.592618
          0.59261 0.592607 0.592605 0.592612 0.592604 0.592612 0.592615 0.592619 0.592619 0.592618 0.592609 0.592606
          0.592614 0.592606 0.592604 0.592615 0.592618 0.592615 0.592613 0.592617 0.592615 0.592606 0.592609 0.592615
          0.592615 0.592609 0.592613 0.592613 0.592604 0.59261 0.592619 0.592619 0.592619 0.592619 0.592611 0.592619
          0.592616 0.592613 0.592596 0.592602 0.592578 0.592603 0.592613 0.592618 0.592618 0.592613 0.592612 0.592611
          0.591733 0.591734 0.591738 0.591736 0.591733 0.591728 0.591731 0.591734 0.591727 0.591736 0.591725 0.591731
          0.591739 0.591739 0.591739 0.591735 0.591737 0.59172 0.591734 0.591735 0.591731 0.591739 0.591738 0.591736
          0.591733 0.591737 0.591737 0.59173 0.591721 0.591735 0.591735 0.591736 0.591739 0.591739 0.591733 0.591728
          0.591734 0.591735 0.591737 0.591739 0.591738 0.591738 0.591738 0.59172 0.591727 0.591725 0.591707 0.591726
          0.591737 0.591739 0.591739 0.591737 0.591733 0.591722 0.590856 0.590867 0.590864 0.590863 0.590861 0.590859
          0.590864 0.590858 0.590861 0.590866 0.590863 0.590858 0.590869 0.59087 0.590869 0.590863 0.590863 0.590862
          0.590859 0.590867 0.590868 0.590865 0.590857 0.590857 0.590863 0.590856 0.590858 0.59085 0.59086 0.590861
          0.590867 0.590869 0.590869 0.590869 0.590869 0.590863 0.590862 0.590863 0.590868 0.590869 0.590868 0.59086
          0.590867 0.590857 0.590867 0.590858 0.590835 0.590848 0.590868 0.590869 0.590869 0.590869 0.590868 0.590859
          0.590003 0.590003 0.59 0.589999 0.589998 0.589998 0.589996 0.59 0.590006 0.589985 0.59 0.590002
          0.590009 0.590009 0.590009 0.590005 0.589995 0.590003 0.590003 0.590003 0.590005 0.590008 0.590007 0.590008
          0.590005 0.590002 0.590001 0.589994 0.589997 0.589991 0.590008 0.590006 0.590002 0.590008 0.590008 0.590004
          0.590002 0.590002 0.59 0.590009 0.590008 0.590002 0.589993 0.589996 0.590007 0.589977 0.589989 0.590003
          0.590009 0.590009 0.590001 0.589999 0.590006 0.590008 0.589159 0.589159 0.589159 0.589157 0.589141 0.589144
          0.589157 0.589148 0.589153 0.589147 0.589153 0.589153 0.589149 0.589158 0.589159 0.589154 0.589158 0.589148
          0.589153 0.589149 0.589156 0.589152 0.589144 0.589151 0.589148 0.58915 0.589154 0.589149 0.589156 0.589148
          0.589157 0.58915 0.589156 0.589159 0.589159 0.589149 0.589159 0.589159 0.589156 0.589156 0.589149 0.58915
          0.589152 0.589156 0.589158 0.589142 0.589128 0.589157 0.589159 0.589154 0.589154 0.589158 0.589159 0.589152
          0.588319 0.588319 0.588319 0.588318 0.588305 0.588305 0.588315 0.58831 0.588308 0.588314 0.588315 0.588315
          0.588312 0.588318 0.588319 0.588317 0.588319 0.588319 0.588319 0.588317 0.588313 0.588308 0.588296 0.588303
          0.588296 0.588305 0.588317 0.588317 0.588316 0.588311 0.588315 0.588318 0.588313 0.588308 0.588313 0.588315
          0.588319 0.588319 0.588319 0.588317 0.588299 0.588315 0.588311 0.588308 0.588313 0.5883 0.588279 0.588315
          0.588315 0.588312 0.588318 0.588319 0.588319 0.588318 0.587488 0.587488 0.587483 0.587482 0.587487 0.587486
          0.587487 0.587473 0.587462 0.587476 0.587467 0.587472 0.587472 0.587483 0.587481 0.587488 0.587488 0.587488
          0.587488 0.587488 0.58748 0.587475 0.587485 0.587483 0.58748 0.58746 0.587477 0.587479 0.587477 0.587475
          0.587486 0.587482 0.587477 0.587487 0.587488 0.587488 0.587488 0.587488 0.587482 0.587477 0.587484 0.587487
          0.587483 0.587472 0.587475 0.587483 0.587444 0.587482 0.587484 0.587471 0.587479 0.587488 0.587487 0.587483
          0.586664 0.586664 0.586666 0.586665 0.586666 0.586664 0.586663 0.58666 0.586653 0.586659 0.586651 0.586651
          0.586655 0.586662 0.586659 0.586664 0.586667 0.586667 0.586666 0.586666 0.586666 0.58666 0.586661 0.586665
          0.586657 0.586663 0.586654 0.586649 0.58666 0.586652 0.586658 0.586656 0.586656 0.586663 0.586664 0.586667
          0.586662 0.586666 0.58666 0.586659 0.586663 0.586658 0.586661 0.586662 0.586658 0.586651 0.586628 0.586654
          0.586657 0.58666 0.586661 0.586662 0.586666 0.586665 0.585845 0.585832 0.585844 0.585842 0.585846 0.585853
          0.58585 0.585845 0.585839 0.585838 0.585843 0.585845 0.585847 0.585848 0.58584 0.585844 0.585853 0.585853
          0.585847 0.585846 0.585851 0.585851 0.585853 0.585848 0.585853 0.585852 0.585845 0.58584 0.585841 0.585843
          0.585846 0.585845 0.585848 0.585852 0.585854 0.585853 0.585851 0.585851 0.585847 0.585849 0.585849 0.585847
          0.585851 0.585848 0.585841 0.585829 0.585816 0.585851 0.585851 0.58585 0.585851 0.585847 0.585853 0.585854
          0.58503 0.58504 0.585044 0.585043 0.585044 0.585049 0.585044 0.585048 0.585045 0.585035 0.585038 0.58504
          0.585043 0.585033 0.585047 0.585036 0.585042 0.585042 0.585036 0.585037 0.585047 0.585044 0.585049 0.585049
          0.585047 0.585045 0.585043 0.585037 0.585042 0.585042 0.585041 0.585045 0.585046 0.585035 0.58504 0.585037
          0.585036 0.585038 0.585049 0.585047 0.585037 0.585043 0.585044 0.585042 0.585048 0.585042 0.585019 0.585048
          0.585049 0.585042 0.585048 0.585028 0.585041 0.585045 0.584239 0.584242 0.584254 0.584252 0.584234 0.584249
          0.584249 0.584254 0.584242 0.584242 0.584234 0.58425 0.584254 0.584245 0.584244 0.584251 0.58424 0.58424
          0.58425 0.584242 0.58425 0.584254 0.584253 0.584249 0.58425 0.584249 0.584254 0.584242 0.584242 0.584247
          0.584247 0.584246 0.584246 0.584244 0.584237 0.58423 0.584252 0.584253 0.584255 0.584249 0.584251 0.584247
          0.584249 0.584249 0.584249 0.584252 0.58421 0.584248 0.58425 0.584244 0.584252 0.584254 0.584247 0.584251
          0.583466 0.583468 0.583468 0.583461 0.583457 0.583466 0.583466 0.583468 0.583461 0.583462 0.583463 0.583467
          0.583456 0.583464 0.583465 0.583462 0.583463 0.583462 0.583464 0.583464 0.583459 0.583454 0.583453 0.583462
          0.58346 0.583465 0.583468 0.583455 0.583451 0.583448 0.583459 0.583461 0.583461 0.583464 0.583463 0.583459
          0.583468 0.583468 0.583468 0.583458 0.583456 0.583451 0.583457 0.583464 0.583468 0.58346 0.583432 0.583461
          0.583459 0.583456 0.583465 0.583468 0.583465 0.583466 0.58269 0.582682 0.582679 0.582682 0.582685 0.58269
          0.58268 0.58269 0.582689 0.582679 0.58267 0.582688 0.58269 0.58269 0.582684 0.58269 0.582691 0.582691
          0.582687 0.582688 0.582685 0.58269 0.58269 0.582689 0.582683 0.582683 0.582686 0.582686 0.582683 0.582679
          0.582689 0.582684 0.582689 0.582685 0.582689 0.58269 0.582685 0.58268 0.58268 0.582689 0.582684 0.582684
          0.582683 0.582688 0.582685 0.582678 0.582647 0.582688 0.58269 0.58269 0.58269 0.582685 0.582689 0.582691
          0.581908 0.581918 0.581919 0.581918 0.581911 0.581913 0.581911 0.58192 0.58192 0.581917 0.581909 0.581919
          0.581919 0.581911 0.581916 0.581918 0.58192 0.581916 0.581919 0.58191 0.581916 0.581921 0.581919 0.581903
          0.581912 0.581912 0.581915 0.581916 0.581913 0.581908 0.581913 0.581913 0.581914 0.58191 0.581918 0.581916
          0.581903 0.581914 0.58192 0.581918 0.581912 0.581908 0.581914 0.581911 0.581916 0.581894 0.581882 0.581918
          0.581911 0.58192 0.581913 0.581913 0.581917 0.581915 0.581153 0.581153 0.581159 0.581159 0.581156 0.581144
          0.58115 0.581152 0.581156 0.581155 0.581156 0.581147 0.581143 0.581147 0.581147 0.581145 0.581146 0.581152
          0.581159 0.581153 0.581153 0.581153 0.581157 0.581144 0.581157 0.581156 0.581155 0.581157 0.581145 0.581149
          0.581145 0.581151 0.58115 0.581144 0.581146 0.581155 0.581158 0.581153 0.581159 0.581156 0.581153 0.581141
          0.581145 0.581153 0.581146 0.581125 0.58113 0.581152 0.581145 0.581154 0.581152 0.581147 0.581139 0.58115
          0.580397 0.580405 0.580405 0.580397 0.580391 0.580396 0.580393 0.580396 0.5804 0.580392 0.580399 0.580394
          0.580403 0.580382 0.580394 0.580404 0.580404 0.580401 0.580404 0.5804 0.580401 0.580393 0.580387 0.580403
          0.580398 0.580399 0.580392 0.580397 0.580395 0.580381 0.580402 0.580398 0.580404 0.580404 0.580405 0.580404
          0.580403 0.580404 0.580404 0.580395 0.580387 0.580396 0.580398 0.58039 0.580401 0.580369 0.580378 0.580392
          0.580395 0.580403 0.580397 0.580399 0.580401 0.580397 0.579657 0.579659 0.579655 0.579658 0.579653 0.579657
          0.579648 0.579651 0.579652 0.579637 0.579641 0.579649 0.579656 0.579656 0.579659 0.579655 0.579655 0.579652
          0.579649 0.579656 0.579654 0.579658 0.579657 0.579656 0.579656 0.579656 0.579652 0.579643 0.579641 0.57965
          0.579641 0.579653 0.579659 0.579653 0.579655 0.579651 0.579653 0.579653 0.57965 0.579657 0.579658 0.579656
          0.579655 0.579655 0.579647 0.57963 0.579631 0.579642 0.579657 0.579659 0.579659 0.579655 0.579658 0.579651
          0.578915 0.578916 0.578918 0.578915 0.578915 0.578919 0.578918 0.578915 0.578919 0.57891 0.578907 0.578918
          0.578915 0.578918 0.578918 0.578914 0.578915 0.578919 0.578916 0.578916 0.578919 0.57892 0.578918 0.578912
          0.578913 0.578916 0.57891 0.578909 0.578905 0.578901 0.578911 0.578902 0.578914 0.578914 0.578907 0.57891
          0.57892 0.578919 0.578914 0.57892 0.578918 0.57892 0.57892 0.578919 0.578912 0.578916 0.578871 0.578909
          0.578918 0.578915 0.57892 0.57892 0.578919 0.578918 0.578179 0.578184 0.578183 0.578181 0.578186 0.578183
          0.578183 0.578181 0.578188 0.578179 0.57818 0.578183 0.578188 0.578176 0.578187 0.578189 0.578189 0.578188
          0.57818 0.578186 0.578188 0.578183 0.578179 0.578184 0.578182 0.578186 0.578173 0.578172 0.578168 0.578176
          0.578178 0.578178 0.578183 0.578189 0.578188 0.578182 0.578188 0.578188 0.578188 0.578181 0.578183 0.578189
          0.578183 0.578189 0.578182 0.578185 0.578147 0.57818 0.578188 0.578183 0.578189 0.578189 0.578185 0.578186
          0.577456 0.577459 0.577454 0.577452 0.577461 0.577463 0.577465 0.577463 0.577462 0.577447 0.577453 0.577454
          0.577464 0.577455 0.577465 0.577466 0.577464 0.577457 0.577461 0.577461 0.577461 0.577454 0.577455 0.577461
          0.577465 0.577465 0.577457 0.57746 0.577457 0.577463 0.577457 0.577458 0.57746 0.577465 0.577465 0.577461
          0.577457 0.577464 0.577458 0.577454 0.577464 0.577462 0.577465 0.577464 0.577458 0.577453 0.57742 0.577454
          0.577462 0.577452 0.577465 0.577465 0.577461 0.577461 0.576725 0.576742 0.576744 0.576746 0.576748 0.576747
          0.576749 0.576749 0.576742 0.576721 0.576726 0.576733 0.576742 0.576744 0.576745 0.576748 0.576749 0.576745
          0.576743 0.576732 0.576747 0.576739 0.57674 0.576741 0.576746 0.576748 0.576742 0.576731 0.576738 0.576739
          0.576739 0.576742 0.576746 0.576744 0.576748 0.576739 0.576741 0.576741 0.576743 0.576738 0.576748 0.576742
          0.576749 0.576749 0.576747 0.576728 0.576703 0.576726 0.576741 0.576742 0.576747 0.576742 0.576747 0.576748
          0.576029 0.576038 0.576037 0.576032 0.576036 0.576032 0.576032 0.576039 0.576036 0.576031 0.57602 0.576031
          0.576035 0.576034 0.57603 0.576038 0.576034 0.576026 0.576036 0.576033 0.576028 0.576035 0.576038 0.576033
          0.576033 0.576034 0.576028 0.576031 0.576028 0.57603 0.576032 0.576024 0.576031 0.576038 0.576036 0.576024
          0.57603 0.576038 0.576035 0.576025 0.576032 0.576038 0.576038 0.576039 0.576038 0.57603 0.575995 0.576026
          0.576034 0.576034 0.576033 0.576029 0.576028 0.576028 0.575335 0.575336 0.57533 0.575336 0.575336 0.575334
          0.575333 0.575335 0.575334 0.575331 0.575315 0.575316 0.575316 0.57532 0.575326 0.575328 0.575316 0.575324
          0.575328 0.575334 0.575333 0.575336 0.575336 0.575332 0.575329 0.57533 0.575332 0.575326 0.575323 0.575328
          0.575322 0.575321 0.575324 0.575328 0.575313 0.575322 0.575324 0.575328 0.575332 0.575332 0.575327 0.575327
          0.575327 0.575335 0.575333 0.575325 0.575301 0.575324 0.575328 0.575322 0.57532 0.575333 0.575299 0.575328
          0.57464 0.57464 0.574637 0.574639 0.57464 0.57464 0.574635 0.574634 0.57463 0.574633 0.57459 0.574624
          0.574628 0.574621 0.574612 0.57462 0.57463 0.574636 0.574632 0.574633 0.57464 0.574635 0.574638 0.574635
          0.574639 0.574632 0.574633 0.574638 0.574618 0.574631 0.574636 0.574627 0.574612 0.574615 0.574624 0.574635
          0.574636 0.574636 0.574636 0.574639 0.574625 0.574639 0.574636 0.574639 0.574635 0.574631 0.574626 0.57463
          0.574638 0.574623 0.574627 0.574621 0.574625 0.574633 0.573951 0.573951 0.573947 0.573933 0.573944 0.573938
          0.573938 0.573925 0.57394 0.573944 0.57391 0.573948 0.573939 0.573937 0.573932 0.573936 0.573949 0.573945
          0.573949 0.573951 0.573948 0.573938 0.573945 0.573942 0.573945 0.573919 0.573934 0.573949 0.573932 0.573942
          0.573942 0.573938 0.57394 0.573935 0.573938 0.573944 0.573946 0.573946 0.573942 0.573934 0.573946 0.573942
          0.573949 0.573936 0.573936 0.573935 0.573921 0.573938 0.573948 0.573938 0.57392 0.573934 0.573944 0.573944
          0.573268 0.573269 0.573268 0.573263 0.573253 0.573247 0.573253 0.573265 0.573253 0.573253 0.573237 0.573262
          0.573263 0.573244 0.573265 0.573257 0.573267 0.57326 0.573268 0.573269 0.573268 0.573259 0.573262 0.573263
          0.573254 0.573258 0.573246 0.573266 0.573263 0.573264 0.573257 0.573241 0.573263 0.573261 0.573258 0.573261
          0.573268 0.573268 0.573268 0.573258 0.573267 0.57326 0.573266 0.573266 0.573259 0.573251 0.57326 0.573261
          0.573264 0.573255 0.57326 0.573266 0.573267 0.573267 0.572587 0.572592 0.57259 0.572583 0.572588 0.572586
          0.572574 0.57258 0.57257 0.572558 0.572583 0.572578 0.572577 0.57258 0.572589 0.57258 0.572591 0.57259
          0.572592 0.572592 0.572588 0.572585 0.572589 0.572583 0.572584 0.572563 0.572574 0.572589 0.572591 0.572589
          0.572581 0.572578 0.572585 0.572586 0.57259 0.572586 0.572591 0.572592 0.572588 0.572581 0.572591 0.572581
          0.572577 0.572575 0.57257 0.572589 0.57258 0.572583 0.572588 0.572569 0.572581 0.572587 0.572576 0.572583
          0.57192 0.571922 0.571919 0.571919 0.571917 0.571916 0.571917 0.57191 0.571908 0.571877 0.571915 0.571913
          0.571909 0.571913 0.571917 0.571914 0.571922 0.571922 0.571922 0.571922 0.571918 0.571916 0.571921 0.571913
          0.571914 0.571905 0.571911 0.571918 0.571913 0.571912 0.571917 0.571908 0.57192 0.571921 0.571922 0.571922
          0.571916 0.571915 0.571912 0.571921 0.571921 0.571919 0.571913 0.571912 0.571907 0.571914 0.57192 0.571917
          0.571919 0.57191 0.571914 0.571918 0.57192 0.571914 0.571258 0.571258 0.571248 0.571255 0.571246 0.571255
          0.571257 0.571255 0.571251 0.57122 0.571254 0.571256 0.571244 0.571255 0.571253 0.571256 0.571258 0.571253
          0.571258 0.571256 0.571255 0.571255 0.571256 0.571253 0.571258 0.571256 0.571234 0.57125 0.571255 0.57125
          0.571246 0.571246 0.571252 0.571252 0.571258 0.571258 0.571252 0.571256 0.571256 0.571257 0.571245 0.571254
          0.571257 0.571245 0.571249 0.571243 0.571252 0.571251 0.571254 0.571257 0.571255 0.571258 0.571258 0.571257
          0.5706 0.5706 0.57059 0.570587 0.570584 0.570582 0.57059 0.570592 0.570597 0.570564 0.570595 0.570599
          0.57059 0.570599 0.5706 0.570599 0.5706 0.570595 0.5706 0.570598 0.570584 0.570599 0.57059 0.570599
          0.5706 0.570599 0.57059 0.570597 0.570599 0.570594 0.570592 0.570593 0.570599 0.57059 0.5706 0.5706
          0.5706 0.570595 0.57059 0.570599 0.570587 0.570599 0.5706 0.570597 0.570584 0.570595 0.570584 0.570583
          0.570588 0.570599 0.570599 0.570595 0.5706 0.5706 0.569943 0.569942 0.569943 0.569936 0.569939 0.569928
          0.569941 0.569947 0.569944 0.569912 0.56994 0.569941 0.569947 0.569943 0.569942 0.569937 0.569943 0.56994
          0.569942 0.569937 0.569941 0.569939 0.569933 0.56994 0.56994 0.569942 0.569938 0.569944 0.569941 0.569936
          0.569941 0.569942 0.569947 0.569944 0.569948 0.569948 0.569946 0.569948 0.569947 0.569941 0.569943 0.56994
          0.569938 0.569933 0.569938 0.569933 0.569938 0.569944 0.569934 0.569937 0.569943 0.569941 0.569948 0.569948
          0.5693 0.569302 0.569299 0.569296 0.569291 0.569298 0.569297 0.569301 0.569302 0.56927 0.569291 0.569292
          0.569299 0.569292 0.569295 0.569302 0.569296 0.569296 0.5693 0.569302 0.569302 0.569297 0.569291 0.569289
          0.569293 0.56929 0.569299 0.569297 0.569294 0.569294 0.569288 0.569289 0.569296 0.569303 0.569302 0.569298
          0.569298 0.569303 0.569302 0.569296 0.569293 0.569289 0.569291 0.569301 0.569302 0.5693 0.5693 0.569297
          0.569298 0.569296 0.569298 0.569302 0.569303 0.569302 0.568652 0.56866 0.568662 0.568656 0.56865 0.568659
          0.568657 0.568662 0.568662 0.568636 0.568637 0.568649 0.568656 0.568658 0.568658 0.568662 0.568654 0.568652
          0.568662 0.568663 0.568663 0.568655 0.568655 0.568653 0.568656 0.56866 0.568649 0.568656 0.568653 0.568653
          0.568647 0.568659 0.568647 0.568661 0.568643 0.568654 0.568656 0.568656 0.568658 0.568657 0.568658 0.568661
          0.568662 0.568663 0.568662 0.568661 0.568657 0.568655 0.568659 0.568644 0.568655 0.568661 0.568657 0.568657
          0.568028 0.568028 0.568028 0.568022 0.568027 0.568026 0.568022 0.568021 0.568027 0.568009 0.568011 0.568005
          0.568018 0.568027 0.568026 0.568021 0.568022 0.568022 0.568029 0.568028 0.568028 0.568027 0.568027 0.568023
          0.568025 0.568028 0.568018 0.568026 0.568024 0.568009 0.568015 0.568014 0.568008 0.568017 0.568014 0.568026
          0.568028 0.568026 0.568021 0.568026 0.568017 0.568021 0.568025 0.568028 0.568021 0.568008 0.568017 0.568024
          0.568021 0.568026 0.568027 0.56802 0.568021 0.568028 0.567398 0.567398 0.5674 0.567395 0.567399 0.567393
          0.567396 0.567392 0.567394 0.567389 0.567382 0.567395 0.567394 0.567397 0.567399 0.567392 0.567393 0.567399
          0.567398 0.567393 0.567399 0.567399 0.567396 0.567396 0.567393 0.567393 0.567396 0.567395 0.567391 0.567398
          0.567395 0.567399 0.567397 0.567389 0.567394 0.567399 0.5674 0.567397 0.567399 0.567393 0.567393 0.567399
          0.567395 0.567394 0.567392 0.567367 0.567387 0.567398 0.567394 0.567399 0.5674 0.567396 0.567399 0.5674
          0.566777 0.566776 0.566776 0.56677 0.566774 0.56677 0.566769 0.566763 0.566769 0.566761 0.566774 0.56677
          0.566769 0.566772 0.56677 0.566751 0.566771 0.566776 0.566773 0.566775 0.566777 0.566776 0.566771 0.56677
          0.56677 0.566771 0.566762 0.566763 0.566767 0.566764 0.566768 0.566773 0.566772 0.566769 0.566764 0.566771
          0.566776 0.56677 0.566776 0.566769 0.56677 0.566776 0.566768 0.566773 0.566761 0.566731 0.566768 0.566772
          0.566775 0.566773 0.566774 0.566775 0.566776 0.566776 0.566158 0.566158 0.566153 0.566156 0.566158 0.56615
          0.566152 0.566142 0.566151 0.566144 0.566146 0.566156 0.566158 0.566152 0.566143 0.566144 0.566156 0.566158
          0.566158 0.566152 0.566158 0.566154 0.566158 0.566157 0.56615 0.566149 0.566151 0.566143 0.566145 0.566151
          0.566158 0.566154 0.566146 0.566156 0.566152 0.566158 0.566158 0.566158 0.566158 0.566158 0.566159 0.566158
          0.56614 0.566139 0.566153 0.566111 0.566149 0.566156 0.566158 0.566149 0.56615 0.566156 0.566156 0.566151
          0.565534 0.565537 0.56554 0.565546 0.565546 0.565537 0.565545 0.565543 0.565537 0.565522 0.565517 0.565537
          0.565544 0.565524 0.565534 0.565538 0.565546 0.565543 0.565533 0.56554 0.565546 0.565546 0.565546 0.565543